DF-ISE text

Info {
  version   = 1.0
  type      = xyplot
  datasets  = [
    "time"
    "bazza_cont OuterVoltage" "bazza_cont InnerVoltage" "bazza_cont QuasiFermiPotential" "bazza_cont DisplacementCurrent" "bazza_cont eCurrent"
    "bazza_cont hCurrent" "bazza_cont TotalCurrent" "bazza_cont Charge" "emitter_cont OuterVoltage" "emitter_cont InnerVoltage"
    "emitter_cont QuasiFermiPotential" "emitter_cont DisplacementCurrent" "emitter_cont eCurrent" "emitter_cont hCurrent" "emitter_cont TotalCurrent"
    "emitter_cont Charge" ]
  functions = [
    Time
    OuterVoltage InnerVoltage QuasiFermiPotential DisplacementCurrent eCurrent
    hCurrent TotalCurrent Charge OuterVoltage InnerVoltage
    QuasiFermiPotential DisplacementCurrent eCurrent hCurrent TotalCurrent
    Charge ]
}

Data {
      0.00000000000000E+00
      0.00000000000000E+00   0.00000000000000E+00   0.00000000000000E+00   0.00000000000000E+00  -2.01178165459238E-21
     -8.06178285294876E-25  -2.01258783287767E-21  -3.98498573913611E-09   0.00000000000000E+00   0.00000000000000E+00
      0.00000000000000E+00   0.00000000000000E+00   2.01178165459238E-21   8.06178285294877E-25   2.01258783287767E-21
      3.98498573913611E-09
      0.00000000000000E+00
     -2.03122439838444E-16  -1.83689474415054E-16   0.00000000000000E+00   0.00000000000000E+00   2.90312927951407E-22
     -3.10650385303606E-26   2.90281862912877E-22  -3.98498573897737E-09   0.00000000000000E+00   0.00000000000000E+00
      0.00000000000000E+00   0.00000000000000E+00  -2.90312927951407E-22   3.10650385303606E-26  -2.90281862912877E-22
      3.98498573897737E-09
      5.00000000000000E-06
      4.62553041627125E-01   4.62553041625112E-01   0.00000000000000E+00  -6.01716250347167E-10   3.13469161713717E-04
      6.92729547402068E-04   1.00619810739954E-03  -1.78036167025516E-09   0.00000000000000E+00   2.01241003695412E-12
      0.00000000000000E+00  -6.89407240232010E-12  -9.96559859691658E-04  -9.63824081380515E-06  -1.00619810739954E-03
      1.78036167025516E-09
      1.15000000000000E-05
      6.25561086822781E-01   6.25561086470561E-01   0.00000000000000E+00  -9.15201739806446E-08   1.64522208753187E-01
      1.15881017842102E-02   1.76110219017223E-01  -9.87881350316752E-10   0.00000000000000E+00   3.52220434177691E-10
      0.00000000000000E+00   1.82664442381132E-10  -1.71105440844429E-01  -5.00477835545876E-03  -1.76110219017223E-01
      9.87881350316751E-10
      1.99500000000000E-05
      5.98616423021485E-01   5.98616422889969E-01   0.00000000000000E+00   2.64833484941870E-08   7.01761798240465E-02
     -4.41823095533143E-03   6.57579753520636E-02  -1.09219791174276E-09   0.00000000000000E+00   1.31515969307471E-10
      0.00000000000000E+00  -2.03374155901701E-11  -6.38570064121642E-02  -1.90096891956195E-03  -6.57579753520636E-02
      1.09219791174276E-09
      3.09350000000000E-05
      4.37437929499975E-01   4.37437929501220E-01   0.00000000000000E+00   6.33433776799363E-09   4.58092845585105E-04
     -1.08093253456284E-03  -6.22833354639965E-04  -1.91029078312956E-09   0.00000000000000E+00  -1.24569017074569E-12
      0.00000000000000E+00  -8.49459646808939E-12   6.26572617670121E-04  -3.73925453556031E-06   6.22833354639965E-04
      1.91029078312956E-09
      3.18275312500000E-05
      4.05548906482789E-01   4.05548906483038E-01   0.00000000000000E+00  -4.55812065589323E-09   1.66796865701204E-05
     -1.40956717168171E-04  -1.24281588718707E-04  -2.07650047624105E-09   0.00000000000000E+00  -2.48531858883567E-13
      0.00000000000000E+00   1.04174679727652E-11   1.25361053761169E-04  -1.07947545993071E-06   1.24281588718707E-04
      2.07650047624105E-09
      3.29878218750000E-05
      3.57665227362884E-01   3.57665227363359E-01   0.00000000000000E+00   5.25722205464749E-10   1.96430740174133E-05
     -2.57271264682119E-04  -2.37627664942500E-04  -2.32218239090783E-09   0.00000000000000E+00  -4.75296515048951E-13
      0.00000000000000E+00  -9.46920231242359E-12   2.37797075278554E-04  -1.69400866850975E-07   2.37627664942500E-04
      2.32218239090783E-09
      3.37420107812500E-05
      3.22786797409807E-01   3.22786797410289E-01   0.00000000000000E+00  -1.29231865539307E-10   1.46979954020409E-06
     -2.42472644214685E-04  -2.41002973906346E-04  -2.49874643808120E-09   0.00000000000000E+00  -4.82001180865100E-13
      0.00000000000000E+00   1.74156240112258E-12   2.41047037711126E-04  -4.40655463419652E-08   2.41002973906346E-04
      2.49874643808120E-09
      3.47224563593750E-05
      2.73166198001724E-01   2.73166198002249E-01   0.00000000000000E+00  -5.76161617653355E-11   6.76309818547863E-07
     -2.62959892872405E-04  -2.62283640670019E-04  -2.74607887770621E-09   0.00000000000000E+00  -5.24525294192185E-13
      0.00000000000000E+00   2.47551652840197E-12   2.62290090545502E-04  -6.45235099951783E-09   2.62283640670019E-04
      2.74607887770621E-09
      3.53597459851563E-05
      2.38402591348974E-01   2.38402591349520E-01   0.00000000000000E+00  -6.89509704703439E-11   9.41793532109300E-08
     -2.72955310356165E-04  -2.72861199953925E-04  -2.91647254809414E-09   0.00000000000000E+00  -5.45741428487124E-13
      0.00000000000000E+00   5.60415793839122E-13   2.72862887046050E-04  -1.68765254170395E-09   2.72861199953924E-04
      2.91647254809414E-09
      3.61882224986719E-05
      1.90360506254777E-01   1.90360506255347E-01   0.00000000000000E+00  -5.15212601797649E-11   2.25995033390518E-08
     -2.84913876302386E-04  -2.84891328320308E-04  -3.14759044630663E-09   0.00000000000000E+00  -5.69804749635496E-13
      0.00000000000000E+00   3.81086043809571E-12   2.84891586926506E-04  -2.62417058638553E-10   2.84891328320308E-04
      3.14759044630664E-09
      3.72652419662422E-05
      1.23292840062082E-01   1.23292840062671E-01   0.00000000000000E+00  -2.45678702880569E-11   2.15449048564331E-10
     -2.94788891531735E-04  -2.94788700650557E-04  -3.46004584351319E-09   0.00000000000000E+00  -5.89551368135114E-13
      0.00000000000000E+00   1.12563870635986E-11   2.94788708691565E-04  -1.92973952089389E-11   2.94788700650557E-04
      3.46004584351319E-09
      3.86653672740836E-05
      2.87834613331082E-02   2.87834613336866E-02   0.00000000000000E+00   5.12024131544105E-11   2.20898283330111E-10
     -2.89191053899729E-04  -2.89190781799033E-04  -3.87037535127005E-09   0.00000000000000E+00  -5.78346310195796E-13
      0.00000000000000E+00  -4.16741836151144E-12   2.89190786288084E-04  -3.21633085316684E-13   2.89190781799033E-04
      3.87037535127005E-09
      4.04855301742774E-05
     -1.05339361922524E-01  -1.05339361922084E-01   0.00000000000000E+00   1.55815841911157E-10  -2.37536344153907E-11
     -2.19810459691471E-04  -2.19810327629264E-04  -4.33870160707663E-09   0.00000000000000E+00  -4.39660757012431E-13
      0.00000000000000E+00   9.60771172225097E-13   2.19810326505781E-04   1.62711797870600E-13   2.19810327629264E-04
      4.33870160707663E-09
      4.28517419445294E-05
     -2.96034762995218E-01  -2.96034762994953E-01   0.00000000000000E+00  -9.60729963775726E-11  -3.90302810316625E-12
     -1.32371215112509E-04  -1.32371315088534E-04  -4.72548520842947E-09   0.00000000000000E+00  -2.64788377369300E-13
      0.00000000000000E+00  -8.36635896855484E-12   1.32371323290105E-04   1.64787545488045E-13   1.32371315088534E-04
      4.72548520842947E-09
      4.59278172458570E-05
     -5.64793173400024E-01  -5.64793173399719E-01   0.00000000000000E+00   5.43661948724172E-11  -6.80605678765735E-12
     -1.52688080975133E-04  -1.52688033414995E-04  -5.18045002704675E-09   0.00000000000000E+00  -3.05383751215026E-13
      0.00000000000000E+00   1.07922153339779E-12   1.52688032171009E-04   1.64764563844426E-13   1.52688033414995E-04
      5.18045002704675E-09
      4.99267151375828E-05
     -9.33743621158607E-01  -9.33743621158291E-01   0.00000000000000E+00  -2.71373110068024E-12  -6.40070123070469E-12
     -1.58247480610187E-04  -1.58247489724619E-04  -5.80363321180166E-09   0.00000000000000E+00  -3.16496964417137E-13
      0.00000000000000E+00  -8.36584986756969E-13   1.58247490396471E-04   1.64732912487149E-13   1.58247489724619E-04
      5.80363321180166E-09
      5.51252823968264E-05
     -1.41052241601276E+00  -1.41052241601246E+00   0.00000000000000E+00   1.01912329889649E-11  -6.46091237122946E-12
     -1.50390642332507E-04  -1.50390638602187E-04  -6.60834482480548E-09   0.00000000000000E+00  -3.00791514354650E-13
      0.00000000000000E+00   1.46736094534757E-12   1.50390636970098E-04   1.64727968075500E-13   1.50390638602187E-04
      6.60834482480549E-09
      6.18834198338431E-05
     -1.94850408837133E+00  -1.94850408837110E+00   0.00000000000000E+00   2.39283440111468E-11  -6.46166730433684E-12
     -1.16761715828195E-04  -1.16761698361519E-04  -7.51530329019890E-09   0.00000000000000E+00  -2.33561166718741E-13
      0.00000000000000E+00  -1.04107543014067E-11   1.16761708607530E-04   1.64742803465492E-13   1.16761698361519E-04
      7.51530329019890E-09
      7.06689985019648E-05
     -2.37211791096530E+00  -2.37211791096521E+00   0.00000000000000E+00   3.10989783950492E-11  -6.46698379759287E-12
     -4.58677793304701E-05  -4.58677546984755E-05  -8.22839778926643E-09   0.00000000000000E+00  -9.17528924703192E-14
      0.00000000000000E+00   2.64758286630657E-12   4.58677518861394E-05   1.64753129072975E-13   4.58677546984754E-05
      8.22839778926643E-09
      8.20902507705229E-05
     -2.29246064516257E+00  -2.29246064516272E+00   0.00000000000000E+00   4.67781435035584E-11  -6.46323157251550E-12
      7.22637681523475E-05   7.22638084672594E-05  -8.09443593776725E-09   0.00000000000000E+00   1.44563616364647E-13
      0.00000000000000E+00   1.40607765098758E-12  -7.22638100380883E-05   1.64751299133445E-13  -7.22638084672594E-05
      8.09443593776725E-09
      8.25542391439331E-05
     -2.27249533513847E+00  -2.27249533513862E+00   0.00000000000000E+00   9.26280594551619E-11  -6.46291011578416E-12
      7.40868986110713E-05   7.40869847762207E-05  -8.06084391488210E-09   0.00000000000000E+00   1.48145561115741E-13
      0.00000000000000E+00   2.27096735910983E-12  -7.40869872119389E-05   1.64750833028987E-13  -7.40869847762207E-05
      8.06084391488210E-09
      8.31574240293663E-05
     -2.24495548527391E+00  -2.24495548527407E+00   0.00000000000000E+00   3.30634214622555E-11  -6.46237788839413E-12
      7.95009197921839E-05   7.95009463932275E-05  -8.01450411167647E-09   0.00000000000000E+00   1.58983240106229E-13
      0.00000000000000E+00  -2.23670702839190E-12  -7.95009443212707E-05   1.64750184962823E-13  -7.95009463932275E-05
      8.01450411167647E-09
      8.39415643804295E-05
     -2.20634416243736E+00  -2.20634416243753E+00   0.00000000000000E+00   3.37593933590641E-11  -6.46166167641242E-12
      8.62253370979520E-05   8.62253643956837E-05  -7.94952626860492E-09   0.00000000000000E+00   1.72484416475735E-13
      0.00000000000000E+00  -7.81521893039978E-12  -8.62253567452141E-05   1.64749266379040E-13  -8.62253643956837E-05
      7.94952626860493E-09
      8.49609468368117E-05
     -2.15155480956041E+00  -2.15155480956060E+00   0.00000000000000E+00   3.22648106457887E-11  -6.46067118599739E-12
      9.46850300233044E-05   9.46850558274438E-05  -7.85730623038797E-09   0.00000000000000E+00   1.89383848121920E-13
      0.00000000000000E+00   4.22854764836805E-12  -9.46850602207394E-05   1.64747942372701E-13  -9.46850558274438E-05
      7.85730623038797E-09
      8.62861440301085E-05
     -2.07290511467057E+00  -2.07290511467078E+00   0.00000000000000E+00   3.03889425767752E-11  -6.45929465568121E-12
      1.05114944939143E-04   1.05114968868791E-04  -7.72489243431912E-09   0.00000000000000E+00   2.10232603468029E-13
      0.00000000000000E+00   4.10343020827088E-12  -1.05114973136967E-04   1.64745997986760E-13  -1.05114968868791E-04
      7.72489243431912E-09
      8.71475222057514E-05
     -2.01751543654343E+00  -2.01751543654365E+00   0.00000000000000E+00   2.96226149975936E-11  -6.45835202131212E-12
      1.11474764607667E-04   1.11474787771930E-04  -7.63161695204954E-09   0.00000000000000E+00   2.22907177202667E-13
      0.00000000000000E+00   2.62956390065313E-12  -1.11474790566239E-04   1.64744596305029E-13  -1.11474787771930E-04
      7.63161695204954E-09
      8.77074180199193E-05
     -1.97979992387483E+00  -1.97979992387506E+00   0.00000000000000E+00   2.83115668212724E-11  -6.45772078603995E-12
      1.15441152174698E-04   1.15441174028544E-04  -7.56809456474854E-09   0.00000000000000E+00   2.30897669339722E-13
      0.00000000000000E+00  -5.59164548692177E-13  -1.15441173634124E-04   1.64743625969935E-13  -1.15441174028544E-04
      7.56809456474854E-09
      8.84352825783376E-05
     -1.92884223517279E+00  -1.92884223517303E+00   0.00000000000000E+00   2.64929232529209E-11  -6.45687941452127E-12
      1.20406700370656E-04   1.20406720406700E-04  -7.48225664876065E-09   0.00000000000000E+00   2.40816900958135E-13
      0.00000000000000E+00  -1.92796206898969E-12  -1.20406718643480E-04   1.64742293761231E-13  -1.20406720406700E-04
      7.48225664876065E-09
      8.93815065042813E-05
     -1.85950572274244E+00  -1.85950572274270E+00   0.00000000000000E+00   2.47366066980542E-11  -6.45575493978039E-12
      1.26483464679587E-04   1.26483482960438E-04  -7.36543767640986E-09   0.00000000000000E+00   2.52940406269529E-13
      0.00000000000000E+00  -5.90440465925783E-13  -1.26483482534738E-04   1.64740440466996E-13  -1.26483482960438E-04
      7.36543767640986E-09
      9.06115976080082E-05
     -1.76452974928349E+00  -1.76452974928376E+00   0.00000000000000E+00   2.23100904779174E-11  -6.45424854187825E-12
      1.33704284452950E-04   1.33704300308792E-04  -7.20538176877574E-09   0.00000000000000E+00   2.67451874748318E-13
      0.00000000000000E+00  -2.23558728434805E-12  -1.33704298237942E-04   1.64737821795359E-13  -1.33704300308792E-04
      7.20538176877574E-09
      9.22107160428531E-05
     -1.63376958114335E+00  -1.63376958114363E+00   0.00000000000000E+00   1.92495116086833E-11  -6.45222912332045E-12
      1.41913252132021E-04   1.41913264929304E-04  -6.98495182846735E-09   0.00000000000000E+00   2.83800237971258E-13
      0.00000000000000E+00  -4.85129030717943E-12  -1.41913260242747E-04   1.64734052983001E-13  -1.41913264929304E-04
      6.98495182846735E-09
      9.42895700081516E-05
     -1.45339890199649E+00  -1.45339890199679E+00   0.00000000000000E+00   1.48519140403472E-11  -6.44952853124274E-12
      1.50584760004922E-04   1.50584768407308E-04  -6.68076912637906E-09   0.00000000000000E+00   3.01158893303480E-13
      0.00000000000000E+00  -1.05558765020749E-11  -1.50584758016160E-04   1.64728455938214E-13  -1.50584768407308E-04
      6.68076912637906E-09
      9.69920801630395E-05
     -1.20598496365717E+00  -1.20598496365749E+00   0.00000000000000E+00   8.77609369687169E-12  -6.44595307503614E-12
      1.58093636452006E-04   1.58093638782146E-04  -6.26331756356474E-09   0.00000000000000E+00   3.16221430205515E-13
      0.00000000000000E+00   6.16936069641024E-12  -1.58093645116227E-04   1.64719487694505E-13  -1.58093638782147E-04
      6.26331756356474E-09
      1.00505343364394E-04
     -8.73324486635705E-01  -8.73324486636028E-01   0.00000000000000E+00   3.42581408330342E-13  -6.44125693755229E-12
      1.61167411568066E-04   1.61167405469390E-04  -5.70170844841899E-09   0.00000000000000E+00   3.22375027598419E-13
      0.00000000000000E+00  -8.31183917826083E-12  -1.61167397322278E-04   1.64726570258928E-13  -1.61167405469390E-04
      5.70170844841899E-09
      1.05072585526154E-04
     -4.46727922909662E-01  -4.46727922909969E-01   0.00000000000000E+00  -1.01399949207580E-11  -6.43506954790272E-12
      1.53686677044470E-04   1.53686660469406E-04  -4.98103823016113E-09   0.00000000000000E+00   3.07404335433592E-13
      0.00000000000000E+00   1.89820770322592E-12  -1.53686662532389E-04   1.64775536109996E-13  -1.53686660469406E-04
      4.98103823016113E-09
      1.11010000336443E-04
      4.53513064479930E-02   4.53513064473855E-02   0.00000000000000E+00   3.33970517039079E-10   2.53906245296162E-11
      3.03724671817955E-04   3.03725031179096E-04  -3.80237171358341E-09   0.00000000000000E+00   6.07461091890582E-13
      0.00000000000000E+00  -2.19551514491905E-12  -3.03725028199100E-04  -7.84480580464634E-13  -3.03725031179096E-04
      3.80237171358341E-09
      1.18728639589819E-04
      4.78833808345991E-01   4.78833808343786E-01   0.00000000000000E+00   6.88177056755375E-10   6.26981103111702E-04
      4.75509921127652E-04   1.10249171241641E-03  -1.69472924067360E-09   0.00000000000000E+00   2.20500845087830E-12
      0.00000000000000E+00  -6.81446514480468E-12  -1.08434997566621E-03  -1.81417299357401E-05  -1.10249171241641E-03
      1.69472924067360E-09
      1.28762870619207E-04
      5.19778340618836E-01   5.19778340618592E-01   0.00000000000000E+00  -2.18863785669648E-08   5.00609496058360E-03
     -4.88390258295370E-03   1.22170491251330E-04  -1.47660642435438E-09   0.00000000000000E+00   2.44307000972021E-13
      0.00000000000000E+00   9.91316320277340E-11  -3.03334200012700E-05  -9.18371703816918E-05  -1.22170491251330E-04
      1.47660642435438E-09
      1.30393433161482E-04
      4.77186145171193E-01   4.77186145170631E-01   0.00000000000000E+00  -1.03299971927374E-08   7.65319561756090E-04
     -4.84407988658338E-04   2.80901243100559E-04  -1.70259727819698E-09   0.00000000000000E+00   5.61814257498441E-13
      0.00000000000000E+00   3.15409633503640E-11  -2.63669706109091E-04  -1.72315685324316E-05  -2.80901243100559E-04
      1.70259727819698E-09
      1.32513164466441E-04
      4.00433804469437E-01   4.00433804469860E-01   0.00000000000000E+00   1.77560741269038E-09   6.32232332842867E-05
     -2.74578766247611E-04  -2.11353757355911E-04  -2.10285012388107E-09   0.00000000000000E+00  -4.22669480629038E-13
      0.00000000000000E+00  -3.44291792143949E-12   2.12232048465980E-04  -8.78287667150577E-07   2.11353757355911E-04
      2.10285012388107E-09
      1.33890989814663E-04
      3.37848456188242E-01   3.37848456188732E-01   0.00000000000000E+00   3.60166874251906E-11   1.97507248298320E-06
     -2.47047615027072E-04  -2.45072506527402E-04  -2.42275933181461E-09   0.00000000000000E+00  -4.90175362476570E-13
      0.00000000000000E+00  -2.17452038625914E-12   2.45151022768594E-04  -7.85140666718272E-08   2.45072506527402E-04
      2.42275933181461E-09
      1.35682162767353E-04
      2.42338735315040E-01   2.42338735315603E-01   0.00000000000000E+00  -4.13026920808024E-11   5.12202370285845E-07
     -2.82120387832257E-04  -2.81608226764664E-04  -2.89729684140996E-09   0.00000000000000E+00  -5.63191928556554E-13
      0.00000000000000E+00   7.82852798962957E-14   2.81610117834783E-04  -1.89114840486558E-09   2.81608226764664E-04
      2.89729684140997E-09
      1.35973228372165E-04
      2.25380565306937E-01   2.25380565307507E-01   0.00000000000000E+00  -9.44203392530293E-11   1.12428521084350E-07
     -2.85244865929773E-04  -2.85132531829028E-04  -2.97963343372143E-09   0.00000000000000E+00  -5.70263973321534E-13
      0.00000000000000E+00  -1.21402504232317E-12   2.85133558665381E-04  -1.02562232714818E-09   2.85132531829028E-04
      2.97963343372144E-09
      1.36351613658421E-04
      2.02757385479225E-01   2.02757385479805E-01   0.00000000000000E+00  -5.04851980374635E-11   3.71124185621242E-08
     -2.90205841985057E-04  -2.90168780051693E-04  -3.08846517202080E-09   0.00000000000000E+00  -5.80366894414362E-13
      0.00000000000000E+00   1.82682509714619E-12   2.90169203834483E-04  -4.25609614450228E-10   2.90168780051693E-04
      3.08846517202080E-09
      1.36843514530553E-04
      1.72390999156106E-01   1.72390999156697E-01   0.00000000000000E+00  -3.98916219512826E-11   9.97114681609944E-09
     -2.95717938099244E-04  -2.95708006844050E-04  -3.23257876224270E-09   0.00000000000000E+00  -5.91388262879265E-13
      0.00000000000000E+00   1.14901210665669E-11   2.95708126742324E-04  -1.31388394810817E-10   2.95708006844050E-04
      3.23257876224270E-09
      1.37482985664326E-04
      1.31343435439251E-01   1.31343435439852E-01   0.00000000000000E+00   3.09608487452863E-11   2.17587881419633E-09
     -3.00509141071450E-04  -3.00506934231787E-04  -3.42327368416101E-09   0.00000000000000E+00  -6.01031960286055E-13
      0.00000000000000E+00  -4.65417382595480E-11   3.00507007460395E-04  -2.66868689871429E-11   3.00506934231787E-04
      3.42327368416101E-09
      1.38314298138229E-04
      7.54280735880136E-02   7.54280735886150E-02   0.00000000000000E+00   1.52531306024459E-11   1.94855420629228E-10
     -3.00685507623355E-04  -3.00685297514804E-04  -3.67340422887661E-09   0.00000000000000E+00  -6.01399339234885E-13
      0.00000000000000E+00   2.23368378562908E-12   3.00685298190652E-04  -2.90953135714081E-12   3.00685297514804E-04
      3.67340422887661E-09
      1.39395004354304E-04
     -1.34496537907739E-03  -1.34496537851056E-03   0.00000000000000E+00   9.97354414574475E-11   4.92857124266775E-12
     -2.83431724923138E-04  -2.83431620259125E-04  -3.98996355944639E-09   0.00000000000000E+00  -5.66865718044855E-13
      0.00000000000000E+00  -7.67687584111541E-12   2.83431627926310E-04   9.69090973318471E-15   2.83431620259125E-04
      3.98996355944638E-09
      1.40799922435202E-04
     -1.07517830241826E-01  -1.07517830241389E-01   0.00000000000000E+00   2.35924121680622E-10  -6.53870940600606E-12
     -2.18377468455706E-04  -2.18377239070293E-04  -4.34473571593658E-09   0.00000000000000E+00  -4.36721725421790E-13
      0.00000000000000E+00   3.74381731441345E-12   2.18377235163875E-04   1.62601442331870E-13   2.18377239070293E-04
      4.34473571593658E-09
      1.42626315940368E-04
     -2.55039057220811E-01  -2.55039057220538E-01   0.00000000000000E+00  -2.03718939372959E-11  -6.41413117731526E-12
     -1.36681097223203E-04  -1.36681124009228E-04  -4.65469775356705E-09   0.00000000000000E+00  -2.73329937929600E-13
      0.00000000000000E+00   1.13885499385661E-11   1.36681112455889E-04   1.64789119850959E-13   1.36681124009228E-04
      4.65469775356705E-09
      1.45000627497085E-04
     -4.59734428386563E-01  -4.59734428386264E-01   0.00000000000000E+00   4.64938571687823E-11  -6.44338478878419E-12
     -1.49631200177766E-04  -1.49631160127294E-04  -5.00292458105693E-09   0.00000000000000E+00  -2.99230153822122E-13
      0.00000000000000E+00   8.76005472064559E-12   1.49631151202465E-04   1.64774234070085E-13   1.49631160127294E-04
      5.00292458105693E-09
      1.48087232520816E-04
     -7.40522592288198E-01  -7.40522592287884E-01   0.00000000000000E+00  -2.90646748807844E-12  -6.44599675823929E-12
     -1.56898143582092E-04  -1.56898152934556E-04  -5.47731456748964E-09   0.00000000000000E+00  -3.13833467038119E-13
      0.00000000000000E+00   1.19885671410888E-11   1.56898140781240E-04   1.64749324907840E-13   1.56898152934556E-04
      5.47731456748964E-09
      1.52099819051667E-04
     -1.11401322082192E+00  -1.11401322082161E+00   0.00000000000000E+00   3.39060032908465E-12  -6.45141470271708E-12
     -1.56862297027535E-04  -1.56862300088350E-04  -6.10798137132979E-09   0.00000000000000E+00  -3.13741622300911E-13
      0.00000000000000E+00  -1.27881260616073E-11   1.56862312711754E-04   1.64722003587457E-13   1.56862300088350E-04
      6.10798137132979E-09
      1.57316181541774E-04
     -1.57742876100324E+00  -1.57742876100296E+00   0.00000000000000E+00   1.52660116080336E-11  -6.45748951596439E-12
     -1.42007352283482E-04  -1.42007343474960E-04  -6.88985968570555E-09   0.00000000000000E+00  -2.83983927445673E-13
      0.00000000000000E+00  -3.39354546775287E-12   1.42007346703774E-04   1.64732351296099E-13   1.42007343474960E-04
      6.88985968570555E-09
      1.64097452778912E-04
     -2.06785209395141E+00  -2.06785209395121E+00   0.00000000000000E+00   2.81856571612854E-11  -6.46358138981329E-12
     -1.00550902565428E-04  -1.00550880843352E-04  -7.71631794462084E-09   0.00000000000000E+00  -2.01139974484484E-13
      0.00000000000000E+00  -7.95172760629829E-12   1.00550888630334E-04   1.64745868444402E-13   1.00550880843352E-04
      7.71631794462084E-09
      1.72913105387192E-04
     -2.41385803590977E+00  -2.41385803590970E+00   0.00000000000000E+00   1.57018352978815E-11  -6.46739352757432E-12
     -3.65236162410694E-05  -3.65236070066276E-05  -8.29859785758888E-09   0.00000000000000E+00  -7.30165660799838E-14
      0.00000000000000E+00  -3.39927362340081E-12   3.65236102411472E-05   1.64754070031695E-13   3.65236070066276E-05
      8.29859785758889E-09
      1.78643279582573E-04
     -2.40894053492594E+00  -2.40894053492601E+00   0.00000000000000E+00   4.43943589111503E-11  -6.46572422899987E-12
      3.77148085681573E-05   3.77148464967919E-05  -8.29035221287385E-09   0.00000000000000E+00   7.54045292473795E-14
      0.00000000000000E+00   1.59883439472953E-11  -3.77148626498899E-05   1.64753960180892E-13  -3.77148464967920E-05
      8.29035221287385E-09
      1.80505586196072E-04
     -2.35789064762296E+00  -2.35789064762307E+00   0.00000000000000E+00   4.57170445840654E-11  -6.46458772768289E-12
      5.51845605008229E-05   5.51845997532798E-05  -8.20450030035037E-09   0.00000000000000E+00   1.10397374123447E-13
      0.00000000000000E+00  -2.02432380914389E-12  -5.51845978937088E-05   1.64752806102904E-13  -5.51845997532798E-05
      8.20450030035037E-09
      1.82926584793621E-04
     -2.26217712492722E+00  -2.26217712492737E+00   0.00000000000000E+00   3.41484617979548E-11  -6.46267733223701E-12
      7.75806310675688E-05   7.75806587533533E-05  -8.04348308695805E-09   0.00000000000000E+00   1.55125761143513E-13
      0.00000000000000E+00   1.62172096349650E-12  -7.75806605398248E-05   1.64750590911667E-13  -7.75806587533533E-05
      8.04348308695805E-09
      1.83713409337825E-04
     -2.22435180943424E+00  -2.22435180943441E+00   0.00000000000000E+00   3.61875906601404E-11  -6.46196990870078E-12
      8.42951618480880E-05   8.42951915737087E-05  -7.97983239159905E-09   0.00000000000000E+00   1.68626937513019E-13
      0.00000000000000E+00   1.94559797354996E-13  -8.42951919330182E-05   1.64749696266903E-13  -8.42951915737087E-05
      7.97983239159904E-09
      1.84736281245289E-04
     -2.17051174265228E+00  -2.17051174265247E+00   0.00000000000000E+00   3.26004947537562E-11  -6.46099012477560E-12
      9.28625622204874E-05   9.28625883599920E-05  -7.88921653608187E-09   0.00000000000000E+00   1.85710058633619E-13
      0.00000000000000E+00  -2.77755552559665E-12  -9.28625857471849E-05   1.64748403257386E-13  -9.28625883599920E-05
      7.88921653608187E-09
      1.85401147985141E-04
     -2.13277969537291E+00  -2.13277969537311E+00   0.00000000000000E+00   3.20842628445149E-11  -6.46031990299706E-12
      9.82107971163077E-05   9.82108227402506E-05  -7.82570035368699E-09   0.00000000000000E+00   1.96455892886900E-13
      0.00000000000000E+00  -6.64016722372981E-12  -9.82108162648309E-05   1.64747482993494E-13  -9.82108227402506E-05
      7.82570035368698E-09
      1.86265474746948E-04
     -2.08062959561718E+00  -2.08062959561739E+00   0.00000000000000E+00   3.02829189348333E-11  -6.45941167185190E-12
      1.04938533548025E-04   1.04938557371532E-04  -7.73789918489820E-09   0.00000000000000E+00   2.09865224519199E-13
      0.00000000000000E+00  -5.04295215235033E-12  -1.04938552493326E-04   1.64746191317213E-13  -1.04938557371532E-04
      7.73789918489820E-09
      1.87389099537298E-04
     -2.00783331370958E+00  -2.00783331370981E+00   0.00000000000000E+00   2.85157830254511E-11  -6.45817429672216E-12
      1.13231476299111E-04   1.13231498356720E-04  -7.61531081363613E-09   0.00000000000000E+00   2.26489121953761E-13
      0.00000000000000E+00   1.34421731790621E-12  -1.13231499865681E-04   1.64744348506919E-13  -1.13231498356720E-04
      7.61531081363613E-09
      1.88849811764752E-04
     -1.90530606325757E+00  -1.90530606325782E+00   0.00000000000000E+00   2.59622230090682E-11  -6.45648197327480E-12
      1.23176334617723E-04   1.23176354123464E-04  -7.44260562839932E-09   0.00000000000000E+00   2.46327585190587E-13
      0.00000000000000E+00  -4.41026830717028E-12  -1.23176349877938E-04   1.64741670010714E-13  -1.23176354123464E-04
      7.44260562839932E-09
      1.90748737660443E-04
     -1.76003821713745E+00  -1.76003821713772E+00   0.00000000000000E+00   2.22802616533668E-11  -6.45416715706067E-12
      1.34535885290300E-04   1.34535901116395E-04  -7.19781160879618E-09   0.00000000000000E+00   2.69105080018053E-13
      0.00000000000000E+00  -3.50614335478097E-12  -1.34535897774989E-04   1.64737695528168E-13  -1.34535901116395E-04
      7.19781160879618E-09
      1.93217341324841E-04
     -1.55414639513520E+00  -1.55414639513550E+00   0.00000000000000E+00   1.75642214998245E-11  -6.45101656722412E-12
      1.46520520396009E-04   1.46520531509214E-04  -6.85068957702046E-09   0.00000000000000E+00   2.93076556429218E-13
      0.00000000000000E+00   1.07455338194966E-11  -1.46520542419479E-04   1.64731654572032E-13  -1.46520531509214E-04
      6.85068957702046E-09
      1.96426526088559E-04
     -1.26505176465676E+00  -1.26505176465707E+00   0.00000000000000E+00   1.03121218180258E-11  -6.44678860648496E-12
      1.57045775771670E-04   1.57045779637003E-04  -6.36299875600514E-09   0.00000000000000E+00   3.14109001249742E-13
      0.00000000000000E+00   1.19941618244673E-11  -1.57045791795886E-04   1.64721146331683E-13  -1.57045779637003E-04
      6.36299875600515E-09
      2.00598466281392E-04
     -8.70821634896086E-01  -8.70821634896409E-01   0.00000000000000E+00   5.92935422583582E-13  -6.44123102447178E-12
      1.61365216853292E-04   1.61365211004996E-04  -5.69748184003771E-09   0.00000000000000E+00   3.22742406547249E-13
      0.00000000000000E+00  -2.82104134725462E-12  -1.61365208348694E-04   1.64738935174473E-13  -1.61365211004996E-04
      5.69748184003771E-09