DF-ISE text

Info {
  version   = 1.0
  type      = xyplot
  datasets  = [
    "time"
    "bazza_cont OuterVoltage" "bazza_cont InnerVoltage" "bazza_cont QuasiFermiPotential" "bazza_cont DisplacementCurrent" "bazza_cont eCurrent"
    "bazza_cont hCurrent" "bazza_cont TotalCurrent" "bazza_cont Charge" "emitter_cont OuterVoltage" "emitter_cont InnerVoltage"
    "emitter_cont QuasiFermiPotential" "emitter_cont DisplacementCurrent" "emitter_cont eCurrent" "emitter_cont hCurrent" "emitter_cont TotalCurrent"
    "emitter_cont Charge" ]
  functions = [
    Time
    OuterVoltage InnerVoltage QuasiFermiPotential DisplacementCurrent eCurrent
    hCurrent TotalCurrent Charge OuterVoltage InnerVoltage
    QuasiFermiPotential DisplacementCurrent eCurrent hCurrent TotalCurrent
    Charge ]
}

Data {
      0.00000000000000E+00
      0.00000000000000E+00   0.00000000000000E+00   0.00000000000000E+00   0.00000000000000E+00  -2.01178165459238E-21
     -8.06178285294876E-25  -2.01258783287767E-21  -3.98498573913611E-09   0.00000000000000E+00   0.00000000000000E+00
      0.00000000000000E+00   0.00000000000000E+00   2.01178165459238E-21   8.06178285294877E-25   2.01258783287767E-21
      3.98498573913611E-09
      0.00000000000000E+00
      0.00000000000000E+00   0.00000000000000E+00   0.00000000000000E+00   0.00000000000000E+00  -5.75870839998088E-22
     -2.07294194881187E-26  -5.75891569417577E-22  -3.98498573897737E-09  -2.03076250429793E-16  -1.83689474415054E-16
      0.00000000000000E+00   0.00000000000000E+00   5.75870839998089E-22   2.07294194881187E-26   5.75891569417577E-22
      3.98498573897737E-09
      5.00000000000000E-06
      0.00000000000000E+00   2.40908745695343E-13   0.00000000000000E+00   1.24000012280534E-09  -6.50574065155418E-12
     -1.20450118479115E-04  -1.20448884984733E-04  -5.01098511751509E-09   4.64497941498161E-01   4.64497941497920E-01
      0.00000000000000E+00   2.43429370301659E-11   1.20448860476912E-04   1.64884295220712E-13   1.20448884984733E-04
      5.01098511751509E-09
      1.15000000000000E-05
      0.00000000000000E+00   5.37153945558220E-13   0.00000000000000E+00   1.77016501163968E-10  -6.44814151115714E-12
     -2.68578736759473E-04  -2.68578566191114E-04  -6.52032970982329E-09   1.35837450914817E+00   1.35837450914764E+00
      0.00000000000000E+00   6.42979272838529E-11   2.68578501728459E-04   1.64727545028565E-13   2.68578566191113E-04
      6.52032970982328E-09
      1.99500000000000E-05
      0.00000000000000E+00   2.09497845570369E-13   0.00000000000000E+00   3.01463918703821E-11  -6.46716902224005E-12
     -1.04757324150217E-04  -1.04757300470994E-04  -8.02567120242717E-09   2.25162663428083E+00   2.25162663428062E+00
      0.00000000000000E+00   3.01994793247391E-11   1.04757270106763E-04   1.64751494688161E-13   1.04757300470994E-04
      8.02567120242716E-09
      3.09350000000000E-05
      0.00000000000000E+00  -1.21005441270917E-13   0.00000000000000E+00   3.39371260241462E-11  -6.46440135043867E-12
      6.04992406441369E-05   6.04992681168616E-05  -8.20195868457277E-09   2.35637859298734E+00   2.35637859298746E+00
      0.00000000000000E+00  -5.76668776161998E-11  -6.04992106147367E-05   1.64752769197450E-13  -6.04992681168616E-05
      8.20195868457278E-09
      3.18275312500000E-05
      0.00000000000000E+00  -1.35241375538083E-13   0.00000000000000E+00   5.34950942618870E-11  -6.46380241689355E-12
      6.76181916687469E-05   6.76182387000388E-05  -8.14516461836053E-09   2.32261451193315E+00   2.32261451193328E+00
      0.00000000000000E+00   7.02456461922823E-11  -6.76183091104370E-05   1.64751997690391E-13  -6.76182387000388E-05
      8.14516461836054E-09
      3.29878218750000E-05
      0.00000000000000E+00  -1.56136053252795E-13   0.00000000000000E+00   3.44326277025626E-11  -6.46281770817325E-12
      7.80600866906604E-05   7.80601146604704E-05  -8.06061733379154E-09   2.27235991944681E+00   2.27235991944697E+00
      0.00000000000000E+00  -1.36947698487705E-10  -7.80599778775227E-05   1.64750829892248E-13  -7.80601146604703E-05
      8.06061733379154E-09
      3.37420107812500E-05
      0.00000000000000E+00  -1.69086161199057E-13   0.00000000000000E+00   3.43860186892028E-11  -6.46213772666697E-12
      8.45542764938674E-05   8.45543044177484E-05  -7.99930091896393E-09   2.23592022079039E+00   2.23592022079056E+00
      0.00000000000000E+00  -8.79516713530791E-12  -8.45542957873312E-05   1.64749971095857E-13  -8.45543044177484E-05
      7.99930091896394E-09
      3.47224563593750E-05
      0.00000000000000E+00  -1.85526369159204E-13   0.00000000000000E+00   3.26051430747300E-11  -6.46119602713305E-12
      9.27635332223288E-05   9.27635593662759E-05  -7.91236581856736E-09   2.18426462048573E+00   2.18426462048591E+00
      0.00000000000000E+00  -1.91583421099279E-11  -9.27635403726825E-05   1.64748735789844E-13  -9.27635593662759E-05
      7.91236581856736E-09
      3.53597459851563E-05
      0.00000000000000E+00  -1.95812979726447E-13   0.00000000000000E+00   3.21208248225688E-11  -6.46055381931705E-12
      9.78966072183180E-05   9.78966328785890E-05  -7.85161560847967E-09   2.14817377548344E+00   2.14817377548364E+00
      0.00000000000000E+00  -8.38564059051871E-11  -9.78965491869310E-05   1.64747859897258E-13  -9.78966328785890E-05
      7.85161560847967E-09
      3.61882224986719E-05
      0.00000000000000E+00  -2.08717165304105E-13   0.00000000000000E+00   3.03990024651663E-11  -6.45968464226768E-12
      1.04363796753285E-04   1.04363820692603E-04  -7.76782506205186E-09   2.09840286894733E+00   2.09840286894754E+00
      0.00000000000000E+00   2.49658850548170E-11  -1.04363845823235E-04   1.64746634173775E-13  -1.04363820692603E-04
      7.76782506205186E-09
      3.72652419662422E-05
      0.00000000000000E+00  -2.24698149578214E-13   0.00000000000000E+00   2.87029038027040E-11  -6.45850220671955E-12
      1.12357090507552E-04   1.12357112751953E-04  -7.65110323119516E-09   2.02908567823470E+00   2.02908567823493E+00
      0.00000000000000E+00   7.80953226645512E-11  -1.12357191012021E-04   1.64744891403269E-13  -1.12357112751953E-04
      7.65110323119517E-09
      3.86653672740836E-05
      0.00000000000000E+00  -2.43985544391795E-13   0.00000000000000E+00   2.62816458310392E-11  -6.45688689133999E-12
      1.21986272783969E-04   1.21986292608728E-04  -7.48701043574361E-09   1.93166375470167E+00   1.93166375470192E+00
      0.00000000000000E+00  -1.74978221915018E-12  -1.21986291023688E-04   1.64742368203722E-13  -1.21986292608728E-04
      7.48701043574362E-09
      4.04855301742774E-05
      0.00000000000000E+00  -2.66166048427413E-13   0.00000000000000E+00   2.27930962977653E-11  -6.45467853446769E-12
      1.33077953341565E-04   1.33077969679983E-04  -7.25478915241221E-09   1.79384465095121E+00   1.79384465095148E+00
      0.00000000000000E+00   2.80884376127034E-11  -1.33077997933159E-04   1.64738640265555E-13  -1.33077969679983E-04
      7.25478915241221E-09
      4.28517419445294E-05
      0.00000000000000E+00  -2.89907912995558E-13   0.00000000000000E+00   1.83029870013448E-11  -6.45167153113116E-12
      1.44958001586064E-04   1.44958013437379E-04  -6.92565706172194E-09   1.59860312415418E+00   1.59860312415447E+00
      0.00000000000000E+00  -9.42175838856940E-12  -1.44958004180354E-04   1.64733004313275E-13  -1.44958013437379E-04
      6.92565706172194E-09
      4.59278172458570E-05
      0.00000000000000E+00  -3.11629193345138E-13   0.00000000000000E+00   1.14399949252439E-11  -6.44762796005340E-12
      1.55824962950051E-04   1.55824967942418E-04  -6.46252463124635E-09   1.32403377270530E+00   1.32403377270561E+00
      0.00000000000000E+00  -5.57362366037677E-11  -1.55824912370905E-04   1.64723616343451E-13  -1.55824967942418E-04
      6.46252463124635E-09
      4.99267151375828E-05
      0.00000000000000E+00  -3.22834251284457E-13   0.00000000000000E+00   2.04098706458005E-12  -6.44229584132901E-12
      1.61414052375144E-04   1.61414047973835E-04  -5.82706064649492E-09   9.47557432530644E-01   9.47557432530966E-01
      0.00000000000000E+00   1.52070732186620E-11  -1.61414063345628E-04   1.64719633702813E-13  -1.61414047973835E-04
      5.82706064649492E-09
      5.51252823968264E-05
      0.00000000000000E+00  -3.07633947276611E-13   0.00000000000000E+00  -1.00009695783687E-11  -6.43530007538607E-12
      1.53808764601254E-04   1.53808748164984E-04  -5.00522983093718E-09   4.61041009178722E-01   4.61041009179030E-01
      0.00000000000000E+00   1.14484350008686E-12  -1.53808749474602E-04   1.64774323012676E-13  -1.53808748164984E-04
      5.00522983093718E-09
      6.18834198338431E-05
      0.00000000000000E+00  -6.46403260466573E-13   0.00000000000000E+00   3.21585352750925E-10   1.69125278887149E-10
      3.23196509987510E-04   3.23197000698142E-04  -3.61415410796570E-09  -8.90633134552744E-02  -8.90633134546280E-02
      0.00000000000000E+00   2.54921266282088E-12  -3.23196998262055E-04  -4.98529933594721E-12  -3.23197000698142E-04
      3.61415410796570E-09
      7.06689985019648E-05
      0.00000000000000E+00  -8.04380800700380E-12   0.00000000000000E+00   2.97638916367076E-09   2.82202589244371E-03
      1.19989206106756E-03   4.02192092990043E-03  -1.49272045934747E-09  -5.17487959658560E-01  -5.17487959650516E-01
      0.00000000000000E+00  -2.30397242674157E-11  -3.94131988331274E-03  -8.06010235479689E-05  -4.02192092990043E-03
      1.49272045934747E-09
      8.20902507705229E-05
      0.00000000000000E+00   3.26958079985074E-12   0.00000000000000E+00  -6.45759788888693E-09   7.53815464655772E-04
     -2.38860257431943E-03  -1.63479356726154E-03  -2.02744227977011E-09  -4.14733605777237E-01  -4.14733605780507E-01
      0.00000000000000E+00   3.77789109718050E-11   1.63667994818461E-03  -1.88641870197869E-06   1.63479356726154E-03
      2.02744227977011E-09
      8.25542391439331E-05
      0.00000000000000E+00   2.32183495660628E-13   0.00000000000000E+00  -1.68467244058587E-08   4.87938233802884E-05
     -1.64859318365688E-04  -1.16082341709806E-04  -2.12650901463677E-09  -3.95867198562907E-01  -3.95867198563140E-01
      0.00000000000000E+00   5.12883875900287E-11   1.16814490348734E-04  -7.32199927315418E-07   1.16082341709806E-04
      2.12650901463677E-09
      8.31574240293663E-05
      0.00000000000000E+00   4.94354298019513E-13   0.00000000000000E+00   1.30733559327295E-09   1.39182498102021E-05
     -2.61103056087172E-04  -2.47183498941377E-04  -2.26157070298186E-09  -3.69540757615564E-01  -3.69540757616059E-01
      0.00000000000000E+00  -5.46328439795213E-12   2.47452617738025E-04  -2.69113333363675E-07   2.47183498941377E-04
      2.26157070298186E-09
      8.39415643804295E-05
      0.00000000000000E+00   4.93527695384645E-13   0.00000000000000E+00  -1.90906062859586E-10   4.78309880973333E-06
     -2.51537346215208E-04  -2.46754438311538E-04  -2.44966216853513E-09  -3.32524581564871E-01  -3.32524581565365E-01
      0.00000000000000E+00   3.03970535081091E-12   2.46818632921439E-04  -6.41976496069539E-08   2.46754438311538E-04
      2.44966216853513E-09
      8.49609468368117E-05
      0.00000000000000E+00   5.37521324507050E-13   0.00000000000000E+00  -5.01693135402454E-11   4.49521677380454E-07
     -2.69206158107094E-04  -2.68756686599027E-04  -2.71319909219406E-09  -2.79815753917990E-01  -2.79815753918528E-01
      0.00000000000000E+00  -5.44083794272047E-12   2.68765031235647E-04  -8.33919578223499E-09   2.68756686599027E-04
      2.71319909219406E-09
      8.62861440301085E-05
      0.00000000000000E+00   5.78621844407419E-13   0.00000000000000E+00  -5.55503401908921E-11   2.24277455746465E-08
     -2.89324671197150E-04  -2.89302299001916E-04  -3.08308299588306E-09  -2.03882220498562E-01  -2.03882220499141E-01
      0.00000000000000E+00  -9.63485895038511E-12   2.89302745343470E-04  -4.36706694744710E-10   2.89302299001916E-04
      3.08308299588306E-09
      8.71475222057514E-05
      0.00000000000000E+00   5.96026422108245E-13   0.00000000000000E+00  -4.08006779520174E-11   5.96820760226122E-09
     -2.98021246225823E-04  -2.98015318818899E-04  -3.33602556340226E-09  -1.50261379932007E-01  -1.50261379932603E-01
      0.00000000000000E+00  -2.23698832464271E-12   2.98015376627189E-04  -5.55713021838830E-11   2.98015318818899E-04
      3.33602556340226E-09
      8.77074180199193E-05
      0.00000000000000E+00   6.01077882654659E-13   0.00000000000000E+00  -1.28453327137623E-11   1.33722145964270E-09
     -3.00537852775755E-04  -3.00536528399628E-04  -3.50357000180936E-09  -1.13695037234637E-01  -1.13695037235238E-01
      0.00000000000000E+00  -8.25520888977018E-12   3.00536550077577E-04  -1.34227400386477E-11   3.00536528399628E-04
      3.50357000180936E-09
      8.84352825783376E-05
      0.00000000000000E+00   5.97358170797754E-13   0.00000000000000E+00   7.20799446024260E-11   9.32998162409344E-11
     -2.98677496577305E-04  -2.98677331197545E-04  -3.72182821568222E-09  -6.42274980267784E-02  -6.42274980273757E-02
      0.00000000000000E+00  -3.40739147001861E-11   2.98677367105009E-04  -1.83354992712438E-12   2.98677331197545E-04
      3.72182821568222E-09
      8.93815065042813E-05
      0.00000000000000E+00   5.63421540399573E-13   0.00000000000000E+00   1.03054381380997E-10   8.10494546816917E-12
     -2.81720616803997E-04  -2.81720505644670E-04  -3.99704861443939E-09   3.18718007914775E-03   3.18718007858428E-03
      0.00000000000000E+00  -1.17130136001526E-11   2.81720517338495E-04   1.91887805750217E-14   2.81720505644670E-04
      3.99704861443939E-09
      9.06115976080082E-05
      0.00000000000000E+00   4.53804846542390E-13   0.00000000000000E+00   2.21936374024824E-10  -5.81398221260319E-12
     -2.26893370811933E-04  -2.26893154689541E-04  -4.31137625456538E-09   9.57191073612679E-02   9.57191073608142E-02
      0.00000000000000E+00  -7.81540118228793E-12   2.26893162343835E-04   1.61107025258125E-13   2.26893154689541E-04
      4.31137625456538E-09
      9.22107160428531E-05
      0.00000000000000E+00   2.83616548496843E-13   0.00000000000000E+00   7.17304952182088E-11  -6.74842188417010E-12
     -1.41817133539812E-04  -1.41817068557739E-04  -4.59849420320666E-09   2.23440268598151E-01   2.23440268597867E-01
      0.00000000000000E+00  -5.86174842864510E-12   1.41817074254706E-04   1.64781492324159E-13   1.41817068557739E-04
      4.59849420320666E-09
      9.42895700081516E-05
      0.00000000000000E+00   2.93352090640840E-13   0.00000000000000E+00   2.81716219432435E-11  -6.35371781067731E-12
     -1.46667988152916E-04  -1.46667966335012E-04  -4.90186246107652E-09   3.99954904198248E-01   3.99954904197955E-01
      0.00000000000000E+00  -5.29284866697530E-11   1.46668019098719E-04   1.64779547677213E-13   1.46667966335012E-04
      4.90186246107652E-09
      9.69920801630395E-05
      0.00000000000000E+00   3.10251522287025E-13   0.00000000000000E+00  -5.94090796135757E-13  -6.46192504246582E-12
     -1.55120064856393E-04  -1.55120071912409E-04  -5.31152043820225E-09   6.42374678615404E-01   6.42374678615094E-01
      0.00000000000000E+00  -2.22235841648909E-11   1.55120093971235E-04   1.64757715540863E-13   1.55120071912409E-04
      5.31152043820224E-09
      1.00505343364394E-04
      0.00000000000000E+00   3.16037740731100E-13   0.00000000000000E+00  -1.82546229207986E-12  -6.44660856356737E-12
     -1.58036713991122E-04  -1.58036722263193E-04  -5.86242702368381E-09   9.68563456115016E-01   9.68563456114700E-01
      0.00000000000000E+00   1.71408900164867E-11   1.58036704957575E-04   1.64727588704480E-13   1.58036722263193E-04
      5.86242702368380E-09
      1.05072585526154E-04
      0.00000000000000E+00   3.00653747248839E-13   0.00000000000000E+00   1.03409613330456E-11  -6.45539361335198E-12
     -1.50333422988710E-04  -1.50333419103142E-04  -6.56829364595287E-09   1.38678161590107E+00   1.38678161590077E+00
      0.00000000000000E+00   3.32870893798095E-11   1.50333385651326E-04   1.64727107632660E-13   1.50333419103142E-04
      6.56829364595287E-09
      1.11010000336443E-04
      0.00000000000000E+00   2.44398845709229E-13   0.00000000000000E+00   2.25395077614102E-11  -6.46112753700115E-12
     -1.22202153298818E-04  -1.22202137220438E-04  -7.38029893790545E-09   1.86837271388338E+00   1.86837271388314E+00
      0.00000000000000E+00   2.84444759312472E-11   1.22202108611221E-04   1.64740671585071E-13   1.22202137220438E-04
      7.38029893790545E-09
      1.18728639589819E-04
      0.00000000000000E+00   1.23163792595293E-13   0.00000000000000E+00   3.31523355685802E-11  -6.46605779447187E-12
     -6.15913247646665E-05  -6.15912980783887E-05  -8.09237551738741E-09   2.29126147863617E+00   2.29126147863604E+00
      0.00000000000000E+00  -1.32764234372395E-11   6.15913111900608E-05   1.64751270274091E-13   6.15912980783887E-05
      8.09237551738742E-09
      1.28762870619207E-04
      0.00000000000000E+00  -7.72414239915300E-14   0.00000000000000E+00   6.79290092358807E-11  -6.46550390492631E-12
      3.86228388861661E-05   3.86229003496714E-05  -8.26987551666820E-09   2.39676411559910E+00   2.39676411559918E+00
      0.00000000000000E+00   1.06347756916307E-10  -3.86230068621820E-05   1.64753686579890E-13  -3.86229003496714E-05
      8.26987551666820E-09
      1.30393433161482E-04
      0.00000000000000E+00  -1.08055333324655E-13   0.00000000000000E+00   4.73989375428411E-11  -6.46452839674327E-12
      5.40253698613771E-05   5.40254107957862E-05  -8.19492329787900E-09   2.35219719234329E+00   2.35219719234340E+00
      0.00000000000000E+00   1.87911129935065E-12  -5.40254128396502E-05   1.64752676211430E-13  -5.40254107957862E-05
      8.19492329787899E-09
      1.32513164466441E-04
      0.00000000000000E+00  -1.47778182166911E-13   0.00000000000000E+00   3.42920555480706E-11  -6.46289380525360E-12
      7.38779680148986E-05   7.38779958440604E-05  -8.05909891564558E-09   2.27145830206117E+00   2.27145830206132E+00
      0.00000000000000E+00  -3.01615122830508E-11  -7.38779658472989E-05   1.64750808721765E-13  -7.38779958440604E-05
      8.05909891564558E-09
      1.33890989814663E-04
      0.00000000000000E+00  -1.71657813840867E-13   0.00000000000000E+00   3.44923079930755E-11  -6.46166588868836E-12
      8.58197808965342E-05   8.58198089271763E-05  -7.94909156076535E-09   2.20608595404357E+00   2.20608595404375E+00
      0.00000000000000E+00  -9.54702104287751E-11  -8.58197136217152E-05   1.64749260188773E-13  -8.58198089271764E-05
      7.94909156076536E-09
      1.35682162767353E-04
      0.00000000000000E+00  -2.00956285010069E-13   0.00000000000000E+00   3.14296296695772E-11  -6.45989123867291E-12
      1.00486309593411E-04   1.00486334563149E-04  -7.78217443994364E-09   2.10692618332159E+00   2.10692618332179E+00
      0.00000000000000E+00   9.98163211568996E-11  -1.00486434544217E-04   1.64746845528098E-13  -1.00486334563149E-04
      7.78217443994363E-09
      1.35973228372165E-04
      0.00000000000000E+00  -2.05318910027426E-13   0.00000000000000E+00   3.57704883732552E-11  -6.45958783423411E-12
      1.02670142035940E-04   1.02670171346840E-04  -7.75261978551187E-09   2.08937254494680E+00   2.08937254494700E+00
      0.00000000000000E+00   4.79932203386881E-11  -1.02670219504807E-04   1.64746409481281E-13  -1.02670171346840E-04
      7.75261978551187E-09
      1.36351613658421E-04
      0.00000000000000E+00  -2.11151050840104E-13   0.00000000000000E+00   2.99860485790448E-11  -6.45918387295267E-12
      1.05564258399008E-04   1.05564281925873E-04  -7.71322264814396E-09   2.06597475332725E+00   2.06597475332746E+00
      0.00000000000000E+00  -1.73172616856553E-11  -1.05564264773357E-04   1.64745824098480E-13  -1.05564281925873E-04
      7.71322264814395E-09
      1.36843514530553E-04
      0.00000000000000E+00  -2.18498629816706E-13   0.00000000000000E+00   2.92370115047602E-11  -6.45864817657314E-12
      1.09238897638421E-04   1.09238920416784E-04  -7.66039026656552E-09   2.03460081069761E+00   2.03460081069783E+00
      0.00000000000000E+00   1.41646880928893E-10  -1.09239062228410E-04   1.64745031589477E-13  -1.09238920416784E-04
      7.66039026656552E-09
      1.37482985664326E-04
      0.00000000000000E+00  -2.27729025906063E-13   0.00000000000000E+00   2.81918592204466E-11  -6.45793451847502E-12
      1.13862755943212E-04   1.13862777677137E-04  -7.58905340906371E-09   1.99224347656152E+00   1.99224347656175E+00
      0.00000000000000E+00  -8.52054517707843E-11  -1.13862692636429E-04   1.64743947561750E-13  -1.13862777677137E-04
      7.58905340906371E-09
      1.38314298138229E-04
      0.00000000000000E+00  -2.39209618057003E-13   0.00000000000000E+00   2.67585051759190E-11  -6.45697978430256E-12
      1.19601952208070E-04   1.19601972509595E-04  -7.49200461569211E-09   1.93462874971366E+00   1.93462874971390E+00
      0.00000000000000E+00   5.87375781413895E-12  -1.19601978548096E-04   1.64742446284611E-13  -1.19601972509595E-04
      7.49200461569211E-09
      1.39395004354304E-04
      0.00000000000000E+00  -2.53170018112548E-13   0.00000000000000E+00   2.47639966766846E-11  -6.45569796526990E-12
      1.26573766165099E-04   1.26573784473397E-04  -7.35896451727091E-09   1.85566412735733E+00   1.85566412735758E+00
      0.00000000000000E+00   1.12953996389649E-10  -1.26573897592134E-04   1.64740336369622E-13  -1.26573784473397E-04
      7.35896451727091E-09
      1.40799922435202E-04
      0.00000000000000E+00  -2.69518381335487E-13   0.00000000000000E+00   2.19914807485986E-11  -6.45397366792881E-12
      1.34750775406192E-04   1.34750790943699E-04  -7.17535181481177E-09   1.74671311560492E+00   1.74671311560519E+00
      0.00000000000000E+00   5.40060323606536E-11  -1.34750845114469E-04   1.64737319762766E-13  -1.34750790943699E-04
      7.17535181481177E-09
      1.42626315940368E-04
      0.00000000000000E+00  -2.87703639302578E-13   0.00000000000000E+00   1.85143091390020E-11  -6.45165495330703E-12
      1.43849156181637E-04   1.43849168244291E-04  -6.92085079349502E-09   1.59575302381985E+00   1.59575302382014E+00
      0.00000000000000E+00   1.47157561240645E-11  -1.43849183124780E-04   1.64732918589290E-13  -1.43849168244291E-04
      6.92085079349503E-09
      1.45000627497085E-04
      0.00000000000000E+00  -3.06026664375479E-13   0.00000000000000E+00   1.33224913789148E-11  -6.44855286834876E-12
      1.53003179037256E-04   1.53003185911194E-04  -6.56820728403263E-09   1.38667291942995E+00   1.38667291943026E+00
      0.00000000000000E+00   1.77165312618632E-11  -1.53003203792452E-04   1.64726109627773E-13  -1.53003185911194E-04
      6.56820728403263E-09
      1.48087232520816E-04
      0.00000000000000E+00  -3.19803374956608E-13   0.00000000000000E+00   6.29286626241132E-12  -6.44445714699140E-12
      1.59904158830720E-04   1.59904158679130E-04  -6.08477129757297E-09   1.10020344166044E+00   1.10020344166076E+00
      0.00000000000000E+00  -2.80284640909321E-11  -1.59904130815388E-04   1.64722798641598E-13  -1.59904158679129E-04
      6.08477129757298E-09
      1.52099819051667E-04
      0.00000000000000E+00  -3.20124831536834E-13   0.00000000000000E+00  -3.18885298386018E-12  -6.43907985068099E-12
      1.60060575002283E-04   1.60060565374350E-04  -5.44165927318740E-09   7.19353955044787E-01   7.19353955045107E-01
      0.00000000000000E+00   8.08263826403681E-12  -1.60060573621739E-04   1.64751112982636E-13  -1.60060565374350E-04
      5.44165927318739E-09
      1.57316181541774E-04
      0.00000000000000E+00  -2.94546072224538E-13   0.00000000000000E+00  -1.03882317672515E-11  -6.43081020599386E-12
      1.47272768730749E-04   1.47272751911707E-04  -4.63966214968447E-09   2.46419866327724E-01   2.46419866328018E-01
      0.00000000000000E+00  -1.16809595177158E-11  -1.47272740395533E-04   1.64785638197886E-13  -1.47272751911707E-04
      4.63966214968447E-09
      1.64097452778912E-04
      0.00000000000000E+00  -6.81350182974037E-13   0.00000000000000E+00  -3.89324617080738E-11   1.08948155213825E-07
      3.40570305646344E-04   3.40679214869096E-04  -2.83427086100241E-09  -2.55353334739757E-01  -2.55353334739076E-01
      0.00000000000000E+00   1.00573269548164E-12  -3.40676016419710E-04  -3.19945511936361E-09  -3.40679214869096E-04
      2.83427086100241E-09
      1.72913105387192E-04
      0.00000000000000E+00  -3.88462826703467E-11   0.00000000000000E+00   1.30603215469553E-08   1.46063934887581E-02
      4.81673649732088E-03   1.94231430464005E-02  -1.27607724714961E-09  -5.60388853428149E-01  -5.60388853389303E-01
      0.00000000000000E+00  -7.77374641223197E-11  -1.90073807498138E-02  -4.15762218849282E-04  -1.94231430464005E-02
      1.27607724714961E-09
      1.78643279582573E-04
      0.00000000000000E+00   1.19260391263973E-13   0.00000000000000E+00   2.21766802705007E-09   3.99506010739173E-03
     -4.05469596019124E-03  -5.96336351314792E-05  -1.51360726506875E-09  -5.12799673149438E-01  -5.12799673149557E-01
      0.00000000000000E+00   3.14050334075799E-11   1.29362492982087E-04  -6.97288892556408E-05   5.96336351314792E-05
      1.51360726506875E-09
      1.80505586196072E-04
      0.00000000000000E+00  -3.64302150133655E-13   0.00000000000000E+00  -8.79425896838424E-09   4.00253554513032E-04
     -2.18091099157264E-04   1.82153661096800E-04  -1.76985600690572E-09  -4.64394803444304E-01  -4.64394803443939E-01
      0.00000000000000E+00   2.43088998462890E-11  -1.71660637128328E-04  -1.04930482773710E-05  -1.82153661096800E-04
      1.76985600690572E-09
      1.82926584793621E-04
      0.00000000000000E+00   4.59545142617860E-13   0.00000000000000E+00   1.41994974771657E-09   3.37166325072076E-05
     -2.63489739751059E-04  -2.29771687294104E-04  -2.24193589076181E-09  -3.73381641965950E-01  -3.73381641966410E-01
      0.00000000000000E+00  -4.70931645083688E-12   2.30077003875900E-04  -3.05311872480047E-07   2.29771687294104E-04
      2.24193589076182E-09
      1.83713409337825E-04
      0.00000000000000E+00   4.84572833506911E-13   0.00000000000000E+00   4.70384811382632E-11   2.57183513668611E-06
     -2.44847872524442E-04  -2.42275990349274E-04  -2.42621528169117E-09  -3.37165685545486E-01  -3.37165685545971E-01
      0.00000000000000E+00  -4.62184226808981E-12   2.42352947355051E-04  -7.69523839340160E-08   2.42275990349274E-04
      2.42621528169117E-09
      1.84736281245289E-04
      0.00000000000000E+00   5.27877627100260E-13   0.00000000000000E+00  -6.17852076622654E-11   1.09090983136016E-06
     -2.65023256094771E-04  -2.63932408048619E-04  -2.68541351547506E-09  -2.85423417688084E-01  -2.85423417688612E-01
      0.00000000000000E+00  -2.85793739751544E-12   2.63942769746037E-04  -1.03588394809746E-08   2.63932408048619E-04
      2.68541351547506E-09
      1.85401147985141E-04
      0.00000000000000E+00   5.50333665347500E-13   0.00000000000000E+00  -6.75972402222282E-11   1.29480795453715E-07
     -2.75303792120040E-04  -2.75174378921827E-04  -2.86449684859547E-09  -2.49059944276865E-01  -2.49059944277415E-01
      0.00000000000000E+00   9.53520233803348E-12   2.75176917792287E-04  -2.54840566245874E-09   2.75174378921827E-04
      2.86449684859547E-09
      1.86265474746948E-04
      0.00000000000000E+00   5.75728735185381E-13   0.00000000000000E+00  -5.22843786864935E-11   3.35016317888838E-08
     -2.87898142789154E-04  -2.87864693441744E-04  -3.10789284494976E-09  -1.98692834472233E-01  -1.98692834472809E-01
      0.00000000000000E+00   2.07094093668882E-13   2.87865055280042E-04  -3.62045392032807E-10   2.87864693441744E-04
      3.10789284494976E-09
      1.87389099537298E-04
      0.00000000000000E+00   5.96807102374509E-13   0.00000000000000E+00  -3.12215630698963E-10  -4.91794755943505E-11
     -2.98393225437909E-04  -2.98393586833015E-04  -3.43758108164821E-09  -1.28216944185394E-01  -1.28216944185991E-01
      0.00000000000000E+00  -2.85154763200550E-12   2.98393613010168E-04  -2.33256049040024E-11   2.98393586833015E-04
      3.43758108164821E-09
      1.88849811764752E-04
      0.00000000000000E+00   5.84637674694512E-13   0.00000000000000E+00   1.06058980959706E-10   3.18424077658900E-10
     -2.92328671197546E-04  -2.92328246714488E-04  -3.87073966635641E-09  -2.86935298446244E-02  -2.86935298452089E-02
      0.00000000000000E+00  -2.26663159492630E-11   2.92328269695631E-04  -3.14827306080969E-13   2.92328246714488E-04
      3.87073966635641E-09
      1.90748737660443E-04
      0.00000000000000E+00   4.31486575400961E-13   0.00000000000000E+00   1.39940194564474E-10  -2.72184633587917E-11
     -2.15744405141203E-04  -2.15744292419471E-04  -4.35905199092176E-09   1.12770876109655E-01   1.12770876109224E-01
      0.00000000000000E+00   7.97020895224209E-14   2.15744292176407E-04   1.63362267690451E-13   2.15744292419471E-04
      4.35905199092176E-09
      1.93217341324841E-04
      0.00000000000000E+00   2.68048865540167E-13   0.00000000000000E+00  -1.25708889314268E-10  -3.71478824881702E-12
     -1.34033949311111E-04  -1.34034078734788E-04  -4.75613915094229E-09   3.13995288888584E-01   3.13995288888316E-01
      0.00000000000000E+00  -1.25998615217826E-11   1.34034091169864E-04   1.64785905417875E-13   1.34034078734788E-04
      4.75613915094229E-09
      1.96426526088559E-04
      0.00000000000000E+00   3.08001326225441E-13   0.00000000000000E+00   5.03319673356666E-11  -6.80921006922957E-12
     -1.53992028841182E-04  -1.53991985318424E-04  -5.23505491332668E-09   5.97113075873399E-01   5.97113075873091E-01
      0.00000000000000E+00   4.31051659818931E-11   1.53991942048497E-04   1.64761658599204E-13   1.53991985318424E-04
      5.23505491332668E-09
      2.00598466281392E-04
      0.00000000000000E+00   3.16405119679930E-13   0.00000000000000E+00   4.41107624238704E-14  -6.40306386692401E-12
     -1.58208768035774E-04  -1.58208774394728E-04  -5.88782077181988E-09   9.83603267497700E-01   9.83603267497383E-01
      0.00000000000000E+00  -7.63309069918480E-12   1.58208781863088E-04   1.64730453032680E-13   1.58208774394728E-04
      5.88782077181988E-09