DF-ISE text

Info {
  version   = 1.0
  type      = xyplot
  datasets  = [
    "time"
    "bazza_cont OuterVoltage" "bazza_cont InnerVoltage" "bazza_cont QuasiFermiPotential" "bazza_cont DisplacementCurrent" "bazza_cont eCurrent"
    "bazza_cont hCurrent" "bazza_cont TotalCurrent" "bazza_cont Charge" "emitter_cont OuterVoltage" "emitter_cont InnerVoltage"
    "emitter_cont QuasiFermiPotential" "emitter_cont DisplacementCurrent" "emitter_cont eCurrent" "emitter_cont hCurrent" "emitter_cont TotalCurrent"
    "emitter_cont Charge" ]
  functions = [
    Time
    OuterVoltage InnerVoltage QuasiFermiPotential DisplacementCurrent eCurrent
    hCurrent TotalCurrent Charge OuterVoltage InnerVoltage
    QuasiFermiPotential DisplacementCurrent eCurrent hCurrent TotalCurrent
    Charge ]
}

Data {
      0.00000000000000E+00
      0.00000000000000E+00   0.00000000000000E+00   0.00000000000000E+00   0.00000000000000E+00  -2.01178165459238E-21
     -8.06178285294876E-25  -2.01258783287767E-21  -3.98498573913611E-09   0.00000000000000E+00   0.00000000000000E+00
      0.00000000000000E+00   0.00000000000000E+00   2.01178165459238E-21   8.06178285294877E-25   2.01258783287767E-21
      3.98498573913611E-09
      0.00000000000000E+00
     -2.03122439838444E-16  -1.83689474415054E-16   0.00000000000000E+00   0.00000000000000E+00   2.90312927951407E-22
     -3.10650385303606E-26   2.90281862912877E-22  -3.98498573897737E-09   0.00000000000000E+00   0.00000000000000E+00
      0.00000000000000E+00   0.00000000000000E+00  -2.90312927951407E-22   3.10650385303606E-26  -2.90281862912877E-22
      3.98498573897737E-09
      5.00000000000000E-06
      4.62553041627125E-01   4.62553041627366E-01   0.00000000000000E+00   1.24000022978837E-09  -6.50574065155442E-12
     -1.20450118481497E-04  -1.20448884987008E-04  -5.01098511751434E-09   9.27050983124842E-01   9.27050983124601E-01
      0.00000000000000E+00  -1.22723680693804E-11   1.20448897094492E-04   1.64884295220716E-13   1.20448884987008E-04
      5.01098511751434E-09
      1.15000000000000E-05
      6.25561086822781E-01   6.25561086823318E-01   0.00000000000000E+00   1.77015863478126E-10  -6.44814151115699E-12
     -2.68578736758751E-04  -2.68578566191029E-04  -6.52032970982329E-09   1.98393559597096E+00   1.98393559597042E+00
      0.00000000000000E+00  -2.00119034300553E-11   2.68578586038204E-04   1.64727545033088E-13   2.68578566191029E-04
      6.52032970982329E-09
      1.99500000000000E-05
      5.98616423021485E-01   5.98616423021694E-01   0.00000000000000E+00   3.01459304554233E-11  -6.46716902224034E-12
     -1.04757324149756E-04  -1.04757300470995E-04  -8.02567120242717E-09   2.85024305730232E+00   2.85024305730211E+00
      0.00000000000000E+00   9.12204330209052E-12   1.04757291184200E-04   1.64751494689727E-13   1.04757300470995E-04
      8.02567120242717E-09
      3.09350000000000E-05
      4.37437929499975E-01   4.37437929499854E-01   0.00000000000000E+00   3.39372905827905E-11  -6.46440135043882E-12
      6.04992406440139E-05   6.04992681169032E-05  -8.20195868457262E-09   2.79381652248722E+00   2.79381652248734E+00
      0.00000000000000E+00   8.73744229522549E-11  -6.04993556560789E-05   1.64752769197429E-13  -6.04992681169032E-05
      8.20195868457262E-09
      3.18275312500000E-05
      4.05548906482789E-01   4.05548906482654E-01   0.00000000000000E+00   5.34952079009819E-11  -6.46380241689421E-12
      6.76181916729734E-05   6.76182387043788E-05  -8.14516461835912E-09   2.72816341841509E+00   2.72816341841523E+00
      0.00000000000000E+00   7.02413061293358E-11  -6.76183091104370E-05   1.64751997690396E-13  -6.76182387043788E-05
      8.14516461835912E-09
      3.29878218750000E-05
      3.57665227362884E-01   3.57665227362728E-01   0.00000000000000E+00   3.44324126024010E-11  -6.46281770817359E-12
      7.80600866944718E-05   7.80601146640667E-05  -8.06061733378914E-09   2.63002514680827E+00   2.63002514680843E+00
      0.00000000000000E+00   3.13109519222055E-11  -7.80601461397694E-05   1.64750829892231E-13  -7.80601146640667E-05
      8.06061733378914E-09
      3.37420107812500E-05
      3.22786797409807E-01   3.22786797409638E-01   0.00000000000000E+00   3.43860109935530E-11  -6.46213772666752E-12
      8.45542765028274E-05   8.45543044267007E-05  -7.99930091895931E-09   2.55870701819744E+00   2.55870701819761E+00
      0.00000000000000E+00  -9.87585350188662E-12  -8.45542947155972E-05   1.64749971095866E-13  -8.45543044267007E-05
      7.99930091895931E-09
      3.47224563593750E-05
      2.73166198001724E-01   2.73166198001539E-01   0.00000000000000E+00   3.26049221960804E-11  -6.46119602713374E-12
      9.27635332165195E-05   9.27635593602456E-05  -7.91236581856417E-09   2.45743081848556E+00   2.45743081848574E+00
      0.00000000000000E+00  -1.77233331091667E-11  -9.27635418016612E-05   1.64748735789848E-13  -9.27635593602456E-05
      7.91236581856418E-09
      3.53597459851563E-05
      2.38402591348974E-01   2.38402591348778E-01   0.00000000000000E+00   3.21211992766853E-11  -6.46055381931773E-12
      9.78966072178262E-05   9.78966328784716E-05  -7.85161560847620E-09   2.38657636683035E+00   2.38657636683055E+00
      0.00000000000000E+00  -4.17014156709109E-11  -9.78965913418038E-05   1.64747859897262E-13  -9.78966328784716E-05
      7.85161560847620E-09
      3.61882224986719E-05
      1.90360506254777E-01   1.90360506254568E-01   0.00000000000000E+00   3.03987831391478E-11  -6.45968464226821E-12
      1.04363796763229E-04   1.04363820702328E-04  -7.76782506204582E-09   2.28876337519853E+00   2.28876337519874E+00
      0.00000000000000E+00  -1.86276908482109E-11  -1.04363802239383E-04   1.64746634173796E-13  -1.04363820702328E-04
      7.76782506204582E-09
      3.72652419662422E-05
      1.23292840062082E-01   1.23292840061857E-01   0.00000000000000E+00   2.87037967275967E-11  -6.45850220672049E-12
      1.12357090504140E-04   1.12357112749434E-04  -7.65110323118973E-09   2.15237851829356E+00   2.15237851829378E+00
      0.00000000000000E+00  -9.05216498087275E-11  -1.12357022392529E-04   1.64744891403308E-13  -1.12357112749434E-04
      7.65110323118974E-09
      3.86653672740836E-05
      2.87834613331082E-02   2.87834613328642E-02   0.00000000000000E+00   2.62821231773432E-11  -6.45688689134090E-12
      1.21986272778544E-04   1.21986292603780E-04  -7.48701043574014E-09   1.96044721603272E+00   1.96044721603297E+00
      0.00000000000000E+00  -1.38758972998862E-12  -1.21986291380933E-04   1.64742368203733E-13  -1.21986292603780E-04
      7.48701043574015E-09
      4.04855301742774E-05
     -1.05339361922524E-01  -1.05339361922790E-01   0.00000000000000E+00   2.27918133654429E-11  -6.45467853524230E-12
      1.33077928607064E-04   1.33077944944199E-04  -7.25478916559481E-09   1.68850529685532E+00   1.68850529685558E+00
      0.00000000000000E+00   3.06750512954215E-11  -1.33077975783989E-04   1.64738640265786E-13  -1.33077944944199E-04
      7.25478916559482E-09
      4.28517419445294E-05
     -2.96034762995218E-01  -2.96034762995508E-01   0.00000000000000E+00   1.83013615721042E-11  -6.45167153127846E-12
      1.44958003412738E-04   1.44958015262428E-04  -6.92565707996983E-09   1.30256837198039E+00   1.30256837198068E+00
      0.00000000000000E+00  -1.37475200365509E-11  -1.44958001679641E-04   1.64733004313617E-13  -1.44958015262428E-04
      6.92565707996983E-09
      4.59278172458570E-05
     -5.64793173400024E-01  -5.64793173400336E-01   0.00000000000000E+00   1.14386447842468E-11  -6.44762796019108E-12
      1.55824962966941E-04   1.55824967957958E-04  -6.46252464961933E-09   7.59240610194287E-01   7.59240610194598E-01
      0.00000000000000E+00   2.71289903622616E-11  -1.55824995251672E-04   1.64723616345006E-13  -1.55824967957958E-04
      6.46252464961933E-09
      4.99267151375828E-05
     -9.33743621158607E-01  -9.33743621158930E-01   0.00000000000000E+00   2.04398539773966E-12  -6.44229583369214E-12
      1.61414052312793E-04   1.61414047914482E-04  -5.82706066494531E-09   1.38138223084978E-02   1.38138223088206E-02
      0.00000000000000E+00   1.27657134132301E-11  -1.61414060844915E-04   1.64719633527047E-13  -1.61414047914482E-04
      5.82706066494531E-09
      5.51252823968264E-05
     -1.41052241601276E+00  -1.41052241601307E+00   0.00000000000000E+00  -9.99551765604404E-12  -6.43530007864194E-12
      1.53808764588498E-04   1.53808748157680E-04  -5.00522984941127E-09  -9.49481395903221E-01  -9.49481395902913E-01
      0.00000000000000E+00   1.57991798332665E-11  -1.53808764121634E-04   1.64774323124487E-13  -1.53808748157680E-04
      5.00522984941127E-09
      6.18834198338431E-05
     -1.94850408837133E+00  -1.94850408837198E+00   0.00000000000000E+00   3.21587087431390E-10   1.69125237348310E-10
      3.23196508184689E-04   3.23196998897013E-04  -3.61415413468450E-09  -2.03756739577476E+00  -2.03756739577412E+00
      0.00000000000000E+00   7.38691968911704E-12  -3.23197001298635E-04  -4.98529813047483E-12  -3.23196998897013E-04
      3.61415413468450E-09
      7.06689985019648E-05
     -2.37211791096530E+00  -2.37211791097334E+00   0.00000000000000E+00   2.97347096722937E-09   2.82202588487554E-03
      1.19989206649718E-03   4.02192092484369E-03  -1.49272045969498E-09  -2.88960587055827E+00  -2.88960587055023E+00
      0.00000000000000E+00   1.19961633414623E-11  -3.94131991349992E-03  -8.06010233399331E-05  -4.02192092484369E-03
      1.49272045969498E-09
      8.20902507705229E-05
     -2.29246064516257E+00  -2.29246064515930E+00   0.00000000000000E+00  -6.45760430268447E-09   7.53815465821048E-04
     -2.38860257560344E-03  -1.63479356738670E-03  -2.02744227829387E-09  -2.70719425122439E+00  -2.70719425122766E+00
      0.00000000000000E+00   5.73912485971407E-11   1.63667992871478E-03  -1.88641871932764E-06   1.63479356738670E-03
      2.02744227829387E-09
      8.25542391439331E-05
     -2.27249533513847E+00  -2.27249533513824E+00   0.00000000000000E+00  -1.68467187353259E-08   4.87938239029879E-05
     -1.64859318864767E-04  -1.16082341680515E-04  -2.12650901312087E-09  -2.66836253399535E+00  -2.66836253399559E+00
      0.00000000000000E+00   4.19791804690512E-11   1.16814499637096E-04  -7.32199935761348E-07   1.16082341680515E-04
      2.12650901312087E-09
      8.31574240293663E-05
     -2.24495548527391E+00  -2.24495548527341E+00   0.00000000000000E+00   1.30733755925494E-09   1.39182500046918E-05
     -2.61103056321608E-04  -2.47183498979357E-04  -2.26157070146536E-09  -2.61449624318605E+00  -2.61449624318654E+00
      0.00000000000000E+00   6.90632966064272E-11   2.47452543252508E-04  -2.69113336447857E-07   2.47183498979357E-04
      2.26157070146536E-09
      8.39415643804295E-05
     -2.20634416243736E+00  -2.20634416243686E+00   0.00000000000000E+00  -1.90911217324795E-10   4.78309885830744E-06
     -2.51537346249880E-04  -2.46754438302790E-04  -2.44966216701196E-09  -2.53886874430392E+00  -2.53886874430441E+00
      0.00000000000000E+00  -6.20761371384449E-11   2.46818698029283E-04  -6.41976503560511E-08   2.46754438302790E-04
      2.44966216701196E-09
      8.49609468368117E-05
     -2.15155480956041E+00  -2.15155480955987E+00   0.00000000000000E+00  -5.01647017128529E-11   4.49521683523437E-07
     -2.69206158147929E-04  -2.68756686629108E-04  -2.71319909068188E-09  -2.43137056378387E+00  -2.43137056378441E+00
      0.00000000000000E+00  -4.39930849759574E-11   2.68765069818073E-04  -8.33919588078259E-09   2.68756686629108E-04
      2.71319909068188E-09
      8.62861440301085E-05
     -2.07290511467057E+00  -2.07290511466999E+00   0.00000000000000E+00  -5.55528342294724E-11   2.24277458336416E-08
     -2.89324671199871E-04  -2.89302299006871E-04  -3.08308299438007E-09  -2.27678733548311E+00  -2.27678733548369E+00
      0.00000000000000E+00  -4.98571737732079E-12   2.89302740699289E-04  -4.36706700053135E-10   2.89302299006871E-04
      3.08308299438007E-09
      8.71475222057514E-05
     -2.01751543654343E+00  -2.01751543654283E+00   0.00000000000000E+00  -4.07964834718629E-11   5.96820767110925E-09
     -2.98021246247101E-04  -2.98015318835913E-04  -3.33602556191090E-09  -2.16777681679671E+00  -2.16777681679730E+00
      0.00000000000000E+00  -5.92004999084715E-11   2.98015433607716E-04  -5.55713028764640E-11   2.98015318835913E-04
      3.33602556191089E-09
      8.77074180199193E-05
     -1.97979992387483E+00  -1.97979992387423E+00   0.00000000000000E+00  -1.28414491918632E-11   1.33722147271804E-09
     -3.00537852779751E-04  -3.00536528399727E-04  -3.50357000032512E-09  -2.09349496143803E+00  -2.09349496143863E+00
      0.00000000000000E+00  -3.30836149957652E-11   3.00536574906082E-04  -1.34227402112873E-11   3.00536528399727E-04
      3.50357000032512E-09
      8.84352825783376E-05
     -1.92884223517279E+00  -1.92884223517219E+00   0.00000000000000E+00   7.20766929878810E-11   9.32998180850918E-11
     -2.98677496627285E-04  -2.98677331250774E-04  -3.72182821422451E-09  -1.99306973353903E+00  -1.99306973353963E+00
      0.00000000000000E+00  -3.84862441183831E-11   2.98677371570568E-04  -1.83354995275627E-12   2.98677331250774E-04
      3.72182821422451E-09
      8.93815065042813E-05
     -1.85950572274244E+00  -1.85950572274188E+00   0.00000000000000E+00   1.03054729710408E-10   8.10494551943006E-12
     -2.81720616875416E-04  -2.81720505715741E-04  -3.99704861303078E-09  -1.85631854303033E+00  -1.85631854303090E+00
      0.00000000000000E+00   3.71957831283091E-12   2.81720501976974E-04   1.91887784850501E-14   2.81720505715741E-04
      3.99704861303077E-09
      9.06115976080082E-05
     -1.76452974928349E+00  -1.76452974928304E+00   0.00000000000000E+00   2.21934925595528E-10  -5.81398219413921E-12
     -2.26893370957506E-04  -2.26893154836563E-04  -4.31137625328515E-09  -1.66881064236407E+00  -1.66881064236452E+00
      0.00000000000000E+00  -2.44588794735864E-11   2.26893179134335E-04   1.61107025191445E-13   2.26893154836563E-04
      4.31137625328515E-09
      9.22107160428531E-05
     -1.63376958114335E+00  -1.63376958114306E+00   0.00000000000000E+00   7.17260827756511E-11  -6.74842188628811E-12
     -1.41817133622266E-04  -1.41817068644605E-04  -4.59849420215589E-09  -1.41032931312358E+00  -1.41032931312387E+00
      0.00000000000000E+00  -1.84519064381267E-12   1.41817070325014E-04   1.64781492323871E-13   1.41817068644605E-04
      4.59849420215589E-09
      9.42895700081516E-05
     -1.45339890199649E+00  -1.45339890199620E+00   0.00000000000000E+00   2.81688872603448E-11  -6.35371781037086E-12
     -1.46667988141082E-04  -1.46667966325913E-04  -4.90186246006089E-09  -1.05344399839873E+00  -1.05344399839902E+00
      0.00000000000000E+00   8.86574458740571E-12   1.46667957295388E-04   1.64779547677259E-13   1.46667966325913E-04
      4.90186246006089E-09
      9.69920801630395E-05
     -1.20598496365717E+00  -1.20598496365686E+00   0.00000000000000E+00  -5.95188384808956E-13  -6.46192504344449E-12
     -1.55120064854118E-04  -1.55120071911232E-04  -5.31152043718651E-09  -5.63610285643023E-01  -5.63610285643333E-01
      0.00000000000000E+00  -4.32835286776709E-13   1.55120072179309E-04   1.64757715557166E-13   1.55120071911232E-04
      5.31152043718651E-09
      1.00505343364394E-04
     -8.73324486635705E-01  -8.73324486635389E-01   0.00000000000000E+00  -1.82740140680601E-12  -6.44660866921996E-12
     -1.58036724779313E-04  -1.58036733053323E-04  -5.86242703376869E-09   9.52389753715585E-02   9.52389753712424E-02
      0.00000000000000E+00   1.25694985651334E-11   1.58036720319097E-04   1.64727589799938E-13   1.58036733053323E-04
      5.86242703376869E-09
      1.05072585526154E-04
     -4.46727922909662E-01  -4.46727922909362E-01   0.00000000000000E+00   1.03420950507693E-11  -6.45539359375978E-12
     -1.50333422986066E-04  -1.50333419099365E-04  -6.56829365603070E-09   9.40053698964999E-01   9.40053698964698E-01
      0.00000000000000E+00   3.32833120578771E-11   1.50333385651326E-04   1.64727110505025E-13   1.50333419099365E-04
      6.56829365603071E-09
      1.11010000336443E-04
      4.53513064479930E-02   4.53513064482374E-02   0.00000000000000E+00   2.25397087393794E-11  -6.46112753953886E-12
     -1.22202151932639E-04  -1.22202135854058E-04  -7.38029894369652E-09   1.91372402376801E+00   1.91372402376776E+00
      0.00000000000000E+00   7.42963851101457E-12   1.22202128259679E-04   1.64740671574056E-13   1.22202135854058E-04
      7.38029894369652E-09
      1.18728639589819E-04
      4.78833808345991E-01   4.78833808346114E-01   0.00000000000000E+00   3.31523436017585E-11  -6.46605779419815E-12
     -6.15913228857076E-05  -6.15912961994218E-05  -8.09237551776835E-09   2.77009528720821E+00   2.77009528720809E+00
      0.00000000000000E+00  -3.48038479854719E-11   6.15913308385185E-05   1.64751270274123E-13   6.15912961994218E-05
      8.09237551776835E-09
      1.28762870619207E-04
      5.19778340618836E-01   5.19778340618759E-01   0.00000000000000E+00   6.79290757087433E-11  -6.46550390494113E-12
      3.86228388590709E-05   3.86229003226427E-05  -8.26987551665705E-09   2.91654245621131E+00   2.91654245621139E+00
      0.00000000000000E+00  -4.22390033862966E-11  -3.86228582483930E-05   1.64753686579903E-13  -3.86229003226427E-05
      8.26987551665705E-09
      1.30393433161482E-04
      4.77186145171193E-01   4.77186145171085E-01   0.00000000000000E+00   4.73988683494989E-11  -6.46452839674082E-12
      5.40253698573505E-05   5.40254107916904E-05  -8.19492329787773E-09   2.82938333751373E+00   2.82938333751384E+00
      0.00000000000000E+00   3.31218581627677E-12  -5.40254142686289E-05   1.64752676211408E-13  -5.40254107916904E-05
      8.19492329787773E-09
      1.32513164466441E-04
      4.00433804469437E-01   4.00433804469290E-01   0.00000000000000E+00   3.42919145556661E-11  -6.46289380525443E-12
      7.38779680121936E-05   7.38779958412144E-05  -8.05909891564616E-09   2.67189210653094E+00   2.67189210653109E+00
      0.00000000000000E+00  -2.73007088230438E-11  -7.38779687052563E-05   1.64750808721739E-13  -7.38779958412144E-05
      8.05909891564615E-09
      1.33890989814663E-04
      3.37848456188242E-01   3.37848456188070E-01   0.00000000000000E+00   3.44923140955907E-11  -6.46166588868805E-12
      8.58197808997924E-05   8.58198089304406E-05  -7.94909156076476E-09   2.54393441023146E+00   2.54393441023163E+00
      0.00000000000000E+00   7.45749955251843E-11  -8.58198836701854E-05   1.64749260188713E-13  -8.58198089304406E-05
      7.94909156076477E-09
      1.35682162767353E-04
      2.42338735315040E-01   2.42338735314839E-01   0.00000000000000E+00   3.14294096279983E-11  -6.45989123867253E-12
      1.00486309596454E-04   1.00486334565972E-04  -7.78217443994149E-09   2.34926491863534E+00   2.34926491863554E+00
      0.00000000000000E+00  -4.48705994380312E-11  -1.00486289860119E-04   1.64746845528074E-13  -1.00486334565972E-04
      7.78217443994149E-09
      1.35973228372165E-04
      2.25380565306937E-01   2.25380565306732E-01   0.00000000000000E+00   3.57708748973907E-11  -6.45958783423443E-12
      1.02670142038629E-04   1.02670171349916E-04  -7.75261978550943E-09   2.31475311025227E+00   2.31475311025248E+00
      0.00000000000000E+00   4.94191229150625E-11  -1.02670220933786E-04   1.64746409481245E-13  -1.02670171349916E-04
      7.75261978550943E-09
      1.36351613658421E-04
      2.02757385479225E-01   2.02757385479014E-01   0.00000000000000E+00   2.99864229251521E-11  -6.45918387295220E-12
      1.05564258406139E-04   1.05564281933378E-04  -7.71322264814070E-09   2.26873213880453E+00   2.26873213880474E+00
      0.00000000000000E+00  -1.58957883877601E-11  -1.05564266202336E-04   1.64745824098441E-13  -1.05564281933378E-04
      7.71322264814070E-09
      1.36843514530553E-04
      1.72390999156106E-01   1.72390999155887E-01   0.00000000000000E+00   2.92373841362227E-11  -6.45864817657340E-12
      1.09238897625511E-04   1.09238920404247E-04  -7.66039026656405E-09   2.20699180985283E+00   2.20699180985305E+00
      0.00000000000000E+00  -2.55310947254197E-11  -1.09238895037897E-04   1.64745031589449E-13  -1.09238920404247E-04
      7.66039026656405E-09
      1.37482985664326E-04
      1.31343435439251E-01   1.31343435439023E-01   0.00000000000000E+00   2.81926565032640E-11  -6.45793451847524E-12
      1.13862755931578E-04   1.13862777666300E-04  -7.58905340906428E-09   2.12358691200110E+00   2.12358691200133E+00
      0.00000000000000E+00  -4.16107633738246E-11  -1.13862736220281E-04   1.64743947561695E-13  -1.13862777666300E-04
      7.58905340906428E-09
      1.38314298138229E-04
      7.54280735880136E-02   7.54280735877745E-02   0.00000000000000E+00   2.67588618085308E-11  -6.45697978430219E-12
      1.19601952217291E-04   1.19601972519173E-04  -7.49200461569060E-09   2.01005682330076E+00   2.01005682330100E+00
      0.00000000000000E+00   7.65040330544788E-12  -1.19601980334319E-04   1.64742446284561E-13  -1.19601972519173E-04
      7.49200461569060E-09
      1.39395004354304E-04
     -1.34496537907739E-03  -1.34496537933055E-03   0.00000000000000E+00   2.47646613918088E-11  -6.45569796526982E-12
      1.26573766169279E-04   1.26573784478242E-04  -7.35896451726820E-09   1.85431916197663E+00   1.85431916197689E+00
      0.00000000000000E+00  -3.20921908624048E-11  -1.26573752550792E-04   1.64740336369593E-13  -1.26573784478242E-04
      7.35896451726820E-09
      1.40799922435202E-04
     -1.07517830241826E-01  -1.07517830242095E-01   0.00000000000000E+00   2.19934703305859E-11  -6.45397366792908E-12
      1.34750775400213E-04   1.34750790939710E-04  -7.17535181481094E-09   1.63919528536259E+00   1.63919528536286E+00
      0.00000000000000E+00   5.57962446614551E-11  -1.34750846900692E-04   1.64737319762716E-13  -1.34750790939710E-04
      7.17535181481094E-09
      1.42626315940368E-04
     -2.55039057220811E-01  -2.55039057221099E-01   0.00000000000000E+00   1.85119497067870E-11  -6.45165495330743E-12
      1.43849156172185E-04   1.43849168232480E-04  -6.92085079350021E-09   1.34071396660211E+00   1.34071396660240E+00
      0.00000000000000E+00   1.47275674073319E-11  -1.43849183124780E-04   1.64732918589244E-13  -1.43849168232480E-04
      6.92085079350022E-09
      1.45000627497085E-04
     -4.59734428386563E-01  -4.59734428386869E-01   0.00000000000000E+00   1.33236061680403E-11  -6.44855286834933E-12
      1.53003179038009E-04   1.53003185913062E-04  -6.56820728403697E-09   9.26938491045944E-01   9.26938491046251E-01
      0.00000000000000E+00   1.77146635681674E-11  -1.53003203792452E-04   1.64726109627462E-13  -1.53003185913062E-04
      6.56820728403697E-09
      1.48087232520816E-04
     -7.40522592288198E-01  -7.40522592288518E-01   0.00000000000000E+00   6.29487817528407E-12  -6.44445714698782E-12
      1.59904158828123E-04   1.59904158678544E-04  -6.08477129757819E-09   3.59680849375320E-01   3.59680849375640E-01
      0.00000000000000E+00   9.48281321663920E-12  -1.59904168326080E-04   1.64722798653173E-13  -1.59904158678544E-04
      6.08477129757819E-09
      1.52099819051667E-04
     -1.11401322082192E+00  -1.11401322082224E+00   0.00000000000000E+00  -3.18727580769376E-12  -6.43907985083912E-12
      1.60060574999209E-04   1.60060565372853E-04  -5.44165927319418E-09  -3.94659265773130E-01  -3.94659265772809E-01
      0.00000000000000E+00  -2.27596082322524E-12  -1.60060563261643E-04   1.64751113027931E-13  -1.60060565372853E-04
      5.44165927319418E-09
      1.57316181541774E-04
     -1.57742876100324E+00  -1.57742876100354E+00   0.00000000000000E+00  -1.03911264656608E-11  -6.43081020647255E-12
      1.47272768732639E-04   1.47272751910702E-04  -4.63966214969351E-09  -1.33100889467040E+00  -1.33100889467011E+00
      0.00000000000000E+00   3.11894071132579E-11  -1.47272783264895E-04   1.64785638198557E-13  -1.47272751910702E-04
      4.63966214969351E-09
      1.64097452778912E-04
     -2.06785209395141E+00  -2.06785209395209E+00   0.00000000000000E+00  -3.89344121907598E-11   1.08948155200773E-07
      3.40570305647750E-04   3.40679214868539E-04  -2.83427086101759E-09  -2.32320542868808E+00  -2.32320542868740E+00
      0.00000000000000E+00  -7.30326710124041E-11  -3.40675942380749E-04  -3.19945511898029E-09  -3.40679214868539E-04
      2.83427086101759E-09
      1.72913105387192E-04
     -2.41385803590977E+00  -2.41385803594862E+00   0.00000000000000E+00   1.30602547333780E-08   1.46063934887623E-02
      4.81673649732703E-03   1.94231430463440E-02  -1.27607724714956E-09  -2.97424688933794E+00  -2.97424688929909E+00
      0.00000000000000E+00  -7.72342833330295E-11  -1.90073807502603E-02  -4.15762218849427E-04  -1.94231430463440E-02
      1.27607724714956E-09
      1.78643279582573E-04
     -2.40894053492594E+00  -2.40894053492582E+00   0.00000000000000E+00   2.21766469276130E-09   3.99506010739057E-03
     -4.05469596018468E-03  -5.96336351294139E-05  -1.51360726506880E-09  -2.92174020807538E+00  -2.92174020807549E+00
      0.00000000000000E+00   1.32592501154867E-10   1.29362391792529E-04  -6.97288892556167E-05   5.96336351294139E-05
      1.51360726506880E-09
      1.80505586196072E-04
     -2.35789064762296E+00  -2.35789064762333E+00   0.00000000000000E+00  -8.79425924753381E-09   4.00253554509649E-04
     -2.18091099171449E-04   1.82153661078952E-04  -1.76985600690761E-09  -2.82228545106692E+00  -2.82228545106655E+00
      0.00000000000000E+00  -4.75688893794611E-11  -1.71660565232836E-04  -1.04930482772274E-05  -1.82153661078952E-04
      1.76985600690761E-09
      1.82926584793621E-04
     -2.26217712492722E+00  -2.26217712492676E+00   0.00000000000000E+00   1.41994302328480E-09   3.37166325065818E-05
     -2.63489739747878E-04  -2.29771687298273E-04  -2.24193589076355E-09  -2.63555876689284E+00  -2.63555876689330E+00
      0.00000000000000E+00   1.27998384625257E-11   2.30076986370911E-04  -3.05311872476270E-07   2.29771687298273E-04
      2.24193589076355E-09
      1.83713409337825E-04
     -2.22435180943424E+00  -2.22435180943376E+00   0.00000000000000E+00   4.70385336036930E-11   2.57183513671517E-06
     -2.44847872511271E-04  -2.42275990336022E-04  -2.42621528168958E-09  -2.56151749498006E+00  -2.56151749498054E+00
      0.00000000000000E+00   1.35843850064974E-11   2.42352929135572E-04  -7.69523839348926E-08   2.42275990336022E-04
      2.42621528168959E-09
      1.84736281245289E-04
     -2.17051174265228E+00  -2.17051174265176E+00   0.00000000000000E+00  -6.17854945344870E-11   1.09090983137102E-06
     -2.65023256108849E-04  -2.63932408062973E-04  -2.68541351547716E-09  -2.45593516033995E+00  -2.45593516034048E+00
      0.00000000000000E+00   3.95792226923353E-11   2.63942727323231E-04  -1.03588394808140E-08   2.63932408062973E-04
      2.68541351547716E-09
      1.85401147985141E-04
     -2.13277969537291E+00  -2.13277969537236E+00   0.00000000000000E+00  -6.75929403791776E-11   1.29480795447897E-07
     -2.75303792147996E-04  -2.75174378945489E-04  -2.86449684860098E-09  -2.38183963964866E+00  -2.38183963964921E+00
      0.00000000000000E+00   2.41397023183579E-12   2.75176924937181E-04  -2.54840566235071E-09   2.75174378945489E-04
      2.86449684860098E-09
      1.86265474746948E-04
     -2.08062959561718E+00  -2.08062959561660E+00   0.00000000000000E+00  -5.22826615575104E-11   3.35016317871007E-08
     -2.87898142829105E-04  -2.87864693479979E-04  -3.10789284496447E-09  -2.27932243008633E+00  -2.27932243008691E+00
      0.00000000000000E+00  -4.39885096016428E-12   2.87865059924222E-04  -3.62045391990316E-10   2.87864693479979E-04
      3.10789284496447E-09
      1.87389099537298E-04
     -2.00783331370958E+00  -2.00783331370899E+00   0.00000000000000E+00  -3.12212196440997E-10  -4.91794755943482E-11
     -2.98393225421280E-04  -2.98393586812952E-04  -3.43758108165548E-09  -2.13605025789340E+00  -2.13605025789400E+00
      0.00000000000000E+00  -7.75357501249109E-11   2.98393687674307E-04  -2.33256049028888E-11   2.98393586812952E-04
      3.43758108165549E-09
      1.88849811764752E-04
     -1.90530606325757E+00  -1.90530606325699E+00   0.00000000000000E+00   1.06058970968863E-10   3.18424069253923E-10
     -2.92328632979996E-04  -2.92328208496956E-04  -3.87073967760856E-09  -1.93399959035048E+00  -1.93399959035106E+00
      0.00000000000000E+00   7.17126463061636E-12   2.92328201640518E-04  -3.14827246025855E-13   2.92328208496956E-04
      3.87073967760856E-09
      1.90748737660443E-04
     -1.76003821713745E+00  -1.76003821713702E+00   0.00000000000000E+00   1.39943273067403E-10  -2.72184627972374E-11
     -2.15744462299908E-04  -2.15744349575097E-04  -4.35905203317447E-09  -1.64726732533092E+00  -1.64726732533135E+00
      0.00000000000000E+00   7.61784540097167E-14   2.15744349335557E-04   1.63362268795525E-13   2.15744349575097E-04
      4.35905203317446E-09
      1.93217341324841E-04
     -1.55414639513520E+00  -1.55414639513494E+00   0.00000000000000E+00  -1.25707175047527E-10  -3.71478826857921E-12
     -1.34033947091603E-04  -1.34034076513566E-04  -4.75613918683009E-09  -1.24015108517645E+00  -1.24015108517672E+00
      0.00000000000000E+00   1.23295119952393E-11   1.34034064019268E-04   1.64785905415773E-13   1.34034076513566E-04
      4.75613918683009E-09
      1.96426526088559E-04
     -1.26505176465676E+00  -1.26505176465645E+00   0.00000000000000E+00   5.03312689216971E-11  -6.80921006736231E-12
     -1.53992028860823E-04  -1.53991985338764E-04  -5.23505494905724E-09  -6.67938667634525E-01  -6.67938667634833E-01
      0.00000000000000E+00  -1.88732481234590E-12   1.53991987061327E-04   1.64761658576992E-13   1.53991985338764E-04
      5.23505494905724E-09
      2.00598466281392E-04
     -8.70821634896086E-01  -8.70821634895770E-01   0.00000000000000E+00   4.41819404336753E-14  -6.40306386869007E-12
     -1.58208768031194E-04  -1.58208774390076E-04  -5.88782080752941E-09   1.12781653751321E-01   1.12781653751005E-01
      0.00000000000000E+00  -2.27907156687606E-12   1.58208776504418E-04   1.64730453022758E-13   1.58208774390076E-04
      5.88782080752941E-09