DF-ISE text

Info {
  version   = 1.0
  type      = xyplot
  datasets  = [
    "time"
    "bazza_cont OuterVoltage" "bazza_cont InnerVoltage" "bazza_cont QuasiFermiPotential" "bazza_cont DisplacementCurrent" "bazza_cont eCurrent"
    "bazza_cont hCurrent" "bazza_cont TotalCurrent" "bazza_cont Charge" "emitter_cont OuterVoltage" "emitter_cont InnerVoltage"
    "emitter_cont QuasiFermiPotential" "emitter_cont DisplacementCurrent" "emitter_cont eCurrent" "emitter_cont hCurrent" "emitter_cont TotalCurrent"
    "emitter_cont Charge" ]
  functions = [
    Time
    OuterVoltage InnerVoltage QuasiFermiPotential DisplacementCurrent eCurrent
    hCurrent TotalCurrent Charge OuterVoltage InnerVoltage
    QuasiFermiPotential DisplacementCurrent eCurrent hCurrent TotalCurrent
    Charge ]
}

Data {
      0.00000000000000E+00
      0.00000000000000E+00   0.00000000000000E+00   0.00000000000000E+00   0.00000000000000E+00  -2.01178165459238E-21
     -8.06178285294876E-25  -2.01258783287767E-21  -3.98498573913611E-09   0.00000000000000E+00   0.00000000000000E+00
      0.00000000000000E+00   0.00000000000000E+00   2.01178165459238E-21   8.06178285294877E-25   2.01258783287767E-21
      3.98498573913611E-09
      0.00000000000000E+00
      0.00000000000000E+00   0.00000000000000E+00   0.00000000000000E+00   0.00000000000000E+00  -5.75870839998088E-22
     -2.07294194881187E-26  -5.75891569417577E-22  -3.98498573897737E-09  -2.03076250429793E-16  -1.83689474415054E-16
      0.00000000000000E+00   0.00000000000000E+00   5.75870839998089E-22   2.07294194881187E-26   5.75891569417577E-22
      3.98498573897737E-09
      5.00000000000000E-06
      9.27050983124842E-01   9.27050983122830E-01   0.00000000000000E+00  -6.01714617465297E-10   3.13469161708323E-04
      6.92729547405657E-04   1.00619810739936E-03  -1.78036167025750E-09   4.64497941498161E-01   4.64497941500174E-01
      0.00000000000000E+00   5.07363183224156E-12  -9.96559871659355E-04  -9.63824081363914E-06  -1.00619810739936E-03
      1.78036167025750E-09
      1.15000000000000E-05
      1.98393559597096E+00   1.98393559561874E+00   0.00000000000000E+00  -9.15197323771505E-08   1.64522208753191E-01
      1.15881017842007E-02   1.76110219017660E-01  -9.87881350316748E-10   1.35837450914817E+00   1.35837450950039E+00
      0.00000000000000E+00   2.23311153171171E-10  -1.71105440885512E-01  -5.00477835545894E-03  -1.76110219017660E-01
      9.87881350316748E-10
      1.99500000000000E-05
      2.85024305730232E+00   2.85024305717080E+00   0.00000000000000E+00   2.64828148150786E-08   7.01761798240527E-02
     -4.41823095532475E-03   6.57579753515428E-02  -1.09219791174275E-09   2.25162663428083E+00   2.25162663441234E+00
      0.00000000000000E+00  -9.49271517949609E-11  -6.38570063370535E-02  -1.90096891956213E-03  -6.57579753515428E-02
      1.09219791174275E-09
      3.09350000000000E-05
      2.79381652248722E+00   2.79381652248847E+00   0.00000000000000E+00   6.33433383581362E-09   4.58092845584156E-04
     -1.08093253455946E-03  -6.22833354641465E-04  -1.91029078313003E-09   2.35637859298734E+00   2.35637859298609E+00
      0.00000000000000E+00  -4.89510700397433E-11   6.26572658128082E-04  -3.73925453554703E-06   6.22833354641465E-04
      1.91029078313004E-09
      3.18275312500000E-05
      2.72816341841509E+00   2.72816341841534E+00   0.00000000000000E+00  -4.55812722967928E-09   1.66796865693692E-05
     -1.40956717176032E-04  -1.24281588733893E-04  -2.07650047624541E-09   2.32261451193315E+00   2.32261451193290E+00
      0.00000000000000E+00   8.40250247067543E-11   1.25360980168764E-04  -1.07947545989611E-06   1.24281588733893E-04
      2.07650047624541E-09
      3.29878218750000E-05
      2.63002514680827E+00   2.63002514680875E+00   0.00000000000000E+00   5.25716943611473E-10   1.96430740167641E-05
     -2.57271264687314E-04  -2.37627664953606E-04  -2.32218239091510E-09   2.27235991944681E+00   2.27235991944634E+00
      0.00000000000000E+00   2.20687376196628E-11   2.37797043751710E-04  -1.69400866841718E-07   2.37627664953606E-04
      2.32218239091510E-09
      3.37420107812500E-05
      2.55870701819744E+00   2.55870701819793E+00   0.00000000000000E+00  -1.29230470277500E-10   1.46979954001944E-06
     -2.42472644242441E-04  -2.41002973932892E-04  -2.49874643809504E-09   2.23592022079039E+00   2.23592022078991E+00
      0.00000000000000E+00  -1.96742580654922E-13   2.41047039675972E-04  -4.40655463373321E-08   2.41002973932892E-04
      2.49874643809504E-09
      3.47224563593750E-05
      2.45743081848556E+00   2.45743081848608E+00   0.00000000000000E+00  -5.76190032692535E-11   6.76309818483822E-07
     -2.62959892851380E-04  -2.62283640651900E-04  -2.74607887771559E-09   2.18426462048573E+00   2.18426462048520E+00
      0.00000000000000E+00  -4.98789490597705E-11   2.62290142881848E-04  -6.45235099903626E-09   2.62283640651900E-04
      2.74607887771559E-09
      3.53597459851563E-05
      2.38657636683035E+00   2.38657636683090E+00   0.00000000000000E+00  -6.89434240351724E-11   9.41793532050401E-08
     -2.72955310363219E-04  -2.72861199953438E-04  -2.91647254810419E-09   2.14817377548344E+00   2.14817377548290E+00
      0.00000000000000E+00   6.84364195610353E-11   2.72862819169560E-04  -1.68765254156904E-09   2.72861199953438E-04
      2.91647254810419E-09
      3.61882224986719E-05
      2.28876337519853E+00   2.28876337519910E+00   0.00000000000000E+00  -5.15210732699835E-11   2.25995033367029E-08
     -2.84913876329651E-04  -2.84891328347387E-04  -3.14759044632367E-09   2.09840286894733E+00   2.09840286894676E+00
      0.00000000000000E+00   3.47396057407776E-11   2.84891556024840E-04  -2.62417058602518E-10   2.84891328347387E-04
      3.14759044632367E-09
      3.72652419662422E-05
      2.15237851829356E+00   2.15237851829415E+00   0.00000000000000E+00  -2.45683944563143E-11   2.15449045950687E-10
     -2.94788891523490E-04  -2.94788700642838E-04  -3.46004584352788E-09   2.02908567823470E+00   2.02908567823411E+00
      0.00000000000000E+00  -8.30639279680405E-11   2.94788803004162E-04  -1.92973952060210E-11   2.94788700642838E-04
      3.46004584352788E-09
      3.86653672740836E-05
      1.96044721603272E+00   1.96044721603330E+00   0.00000000000000E+00   5.12000771871767E-11   2.20898283894940E-10
     -2.89191053883915E-04  -2.89190781785554E-04  -3.87037535127847E-09   1.93166375470167E+00   1.93166375470110E+00
      0.00000000000000E+00  -6.02683127355929E-11   2.89190842375500E-04  -3.21633085285576E-13   2.89190781785554E-04
      3.87037535127848E-09
      4.04855301742774E-05
      1.68850529685532E+00   1.68850529685576E+00   0.00000000000000E+00   1.55820637354052E-10  -2.37536344367361E-11
     -2.19810418871261E-04  -2.19810286804258E-04  -4.33870158532088E-09   1.79384465095121E+00   1.79384465095077E+00
      0.00000000000000E+00   4.87324477277072E-11   2.19810237909099E-04   1.62711797048704E-13   2.19810286804258E-04
      4.33870158532088E-09
      4.28517419445294E-05
      1.30256837198039E+00   1.30256837198066E+00   0.00000000000000E+00  -9.60716632480119E-11  -3.90302809934497E-12
     -1.32371217025418E-04  -1.32371317000109E-04  -4.72548518991449E-09   1.59860312415418E+00   1.59860312415392E+00
      0.00000000000000E+00   5.10616106299675E-11   1.32371265773711E-04   1.64787545489512E-13   1.32371317000109E-04
      4.72548518991449E-09
      4.59278172458570E-05
      7.59240610194287E-01   7.59240610194592E-01   0.00000000000000E+00   5.43658012061786E-11  -6.80605678742419E-12
     -1.52688080950174E-04  -1.52688033390430E-04  -5.18045000864900E-09   1.32403377270530E+00   1.32403377270499E+00
      0.00000000000000E+00  -1.46641098353902E-11   1.52688047889775E-04   1.64764563835759E-13   1.52688033390430E-04
      5.18045000864900E-09
      4.99267151375828E-05
      1.38138223084978E-02   1.38138223088143E-02   0.00000000000000E+00  -2.71231172583752E-12  -6.40070123971703E-12
     -1.58247480556257E-04  -1.58247489669270E-04  -5.80363319334842E-09   9.47557432530644E-01   9.47557432530327E-01
      0.00000000000000E+00   4.46673647397244E-12   1.58247485037801E-04   1.64732912601268E-13   1.58247489669270E-04
      5.80363319334842E-09
      5.51252823968264E-05
     -9.49481395903221E-01  -9.49481395902920E-01   0.00000000000000E+00   1.01890687292290E-11  -6.46091236952683E-12
     -1.50390642329787E-04  -1.50390638601631E-04  -6.60834480636547E-09   4.61041009178722E-01   4.61041009178421E-01
      0.00000000000000E+00   5.36245288669973E-11   1.50390584812374E-04   1.64727968152959E-13   1.50390638601631E-04
      6.60834480636548E-09
      6.18834198338431E-05
     -2.03756739577476E+00  -2.03756739577453E+00   0.00000000000000E+00   2.39173047365627E-11  -6.46166730446364E-12
     -1.16761717618107E-04  -1.16761700162470E-04  -7.51530328000366E-09  -8.90633134552744E-02  -8.90633134555079E-02
      0.00000000000000E+00   5.67998433667566E-12   1.16761694317743E-04   1.64742803465063E-13   1.16761700162470E-04
      7.51530328000366E-09
      7.06689985019648E-05
     -2.88960587055827E+00  -2.88960587055818E+00   0.00000000000000E+00   3.10963136143026E-11  -6.46698379762398E-12
     -4.58677814705755E-05  -4.58677568412457E-05  -8.22839778915543E-09  -5.17487959658560E-01  -5.17487959658652E-01
      0.00000000000000E+00   5.03416843221053E-13   4.58677561730757E-05   1.64753129072955E-13   4.58677568412457E-05
      8.22839778915544E-09
      8.20902507705229E-05
     -2.70719425122439E+00  -2.70719425122454E+00   0.00000000000000E+00   4.67736245775099E-11  -6.46323157252417E-12
      7.22637680318560E-05   7.22638083422490E-05  -8.09443593824603E-09  -4.14733605777237E-01  -4.14733605777093E-01
      0.00000000000000E+00  -1.32686948716901E-12  -7.22638071801308E-05   1.64751299133430E-13  -7.22638083422490E-05
      8.09443593824603E-09
      8.25542391439331E-05
     -2.66836253399535E+00  -2.66836253399550E+00   0.00000000000000E+00   9.26204836145075E-11  -6.46291011578588E-12
      7.40868986110252E-05   7.40869847685987E-05  -8.06084391537676E-09  -3.95867198562907E-01  -3.95867198562759E-01
      0.00000000000000E+00  -1.29385759336091E-12  -7.40869836394920E-05   1.64750833028979E-13  -7.40869847685987E-05
      8.06084391537676E-09
      8.31574240293663E-05
     -2.61449624318605E+00  -2.61449624318621E+00   0.00000000000000E+00   3.30711682273416E-11  -6.46237788839704E-12
      7.95009197810570E-05   7.95009463898473E-05  -8.01450411217556E-09  -3.69540757615564E-01  -3.69540757615405E-01
      0.00000000000000E+00  -8.98587675857942E-14  -7.95009464647387E-05   1.64750184962809E-13  -7.95009463898473E-05
      8.01450411217556E-09
      8.39415643804295E-05
     -2.53886874430392E+00  -2.53886874430409E+00   0.00000000000000E+00   3.37593933455629E-11  -6.46166167641537E-12
      8.62253370849191E-05   8.62253643826508E-05  -7.94952626911270E-09  -3.32524581564871E-01  -3.32524581564699E-01
      0.00000000000000E+00  -6.57292372962958E-13  -8.62253638901077E-05   1.64749266379023E-13  -8.62253643826508E-05
      7.94952626911270E-09
      8.49609468368117E-05
     -2.43137056378387E+00  -2.43137056378406E+00   0.00000000000000E+00   3.22639074870319E-11  -6.46067118600031E-12
      9.46850300232429E-05   9.46850558264792E-05  -7.85730623090220E-09  -2.79815753917990E-01  -2.79815753917801E-01
      0.00000000000000E+00  -3.27262609911335E-12  -9.46850527186011E-05   1.64747942372686E-13  -9.46850558264792E-05
      7.85730623090221E-09
      8.62861440301085E-05
     -2.27678733548311E+00  -2.27678733548332E+00   0.00000000000000E+00   3.03898279950341E-11  -6.45929465568448E-12
      1.05114944924266E-04   1.05114968854799E-04  -7.72489243484783E-09  -2.03882220498562E-01  -2.03882220498352E-01
      0.00000000000000E+00  -1.08868550712375E-11  -1.05114958132690E-04   1.64745997986744E-13  -1.05114968854799E-04
      7.72489243484782E-09
      8.71475222057514E-05
     -2.16777681679671E+00  -2.16777681679693E+00   0.00000000000000E+00   2.96246626884872E-11  -6.45835202131563E-12
      1.11474764589101E-04   1.11474787755412E-04  -7.63161695259063E-09  -1.50261379932007E-01  -1.50261379931784E-01
      0.00000000000000E+00  -8.42850350063211E-12  -1.11474779491653E-04   1.64744596305011E-13  -1.11474787755412E-04
      7.63161695259062E-09
      8.77074180199193E-05
     -2.09349496143803E+00  -2.09349496143826E+00   0.00000000000000E+00   2.83086492924354E-11  -6.45772078604372E-12
      1.15441152146835E-04   1.15441173997763E-04  -7.56809456530196E-09  -1.13695037234637E-01  -1.13695037234406E-01
      0.00000000000000E+00   4.11579756298931E-12  -1.15441178278304E-04   1.64743625969913E-13  -1.15441173997763E-04
      7.56809456530196E-09
      8.84352825783376E-05
     -1.99306973353903E+00  -1.99306973353927E+00   0.00000000000000E+00   2.64851055393444E-11  -6.45687941452476E-12
      1.20406700352029E-04   1.20406720380255E-04  -7.48225664933254E-09  -6.42274980267784E-02  -6.42274980265375E-02
      0.00000000000000E+00  -5.11671947828018E-12  -1.20406715428278E-04   1.64742293761210E-13  -1.20406720380255E-04
      7.48225664933254E-09
      8.93815065042813E-05
     -1.85631854303033E+00  -1.85631854303059E+00   0.00000000000000E+00   2.47411031177025E-11  -6.45575493978567E-12
      1.26483464610980E-04   1.26483482896328E-04  -7.36543767702831E-09   3.18718007914775E-03   3.18718007940069E-03
      0.00000000000000E+00  -5.26330464897192E-13  -1.26483482534738E-04   1.64740440466978E-13  -1.26483482896328E-04
      7.36543767702831E-09
      9.06115976080082E-05
     -1.66881064236407E+00  -1.66881064236434E+00   0.00000000000000E+00   2.23196773943738E-11  -6.45424854188666E-12
      1.33704284299139E-04   1.33704300164568E-04  -7.20538176952042E-09   9.57191073612679E-02   9.57191073615353E-02
      0.00000000000000E+00  -1.01962928381854E-12  -1.33704299309676E-04   1.64737821795343E-13  -1.33704300164568E-04
      7.20538176952042E-09
      9.22107160428531E-05
     -1.41032931312358E+00  -1.41032931312387E+00   0.00000000000000E+00   1.92430935447840E-11  -6.45222912332791E-12
      1.41913252050428E-04   1.41913264841293E-04  -6.98495182944253E-09   2.23440268598151E-01   2.23440268598435E-01
      0.00000000000000E+00  -4.40603459270316E-12  -1.41913260599992E-04   1.64734052982991E-13  -1.41913264841293E-04
      6.98495182944252E-09
      9.42895700081516E-05
     -1.05344399839873E+00  -1.05344399839903E+00   0.00000000000000E+00   1.48591635044445E-11  -6.44952853124986E-12
      1.50584760003017E-04   1.50584768412652E-04  -6.68076912739197E-09   3.99954904198248E-01   3.99954904198550E-01
      0.00000000000000E+00  -2.59227416795233E-11  -1.50584742654638E-04   1.64728455938213E-13  -1.50584768412652E-04
      6.68076912739197E-09
      9.69920801630395E-05
     -5.63610285643023E-01  -5.63610285643339E-01   0.00000000000000E+00   8.78036316235740E-12  -6.44595307504460E-12
      1.58093636446412E-04   1.58093638780822E-04  -6.26331756457949E-09   6.42374678615404E-01   6.42374678615720E-01
      0.00000000000000E+00   1.01003770136814E-11  -1.58093649045918E-04   1.64719487692692E-13  -1.58093638780822E-04
      6.26331756457949E-09
      1.00505343364394E-04
      9.52389753715585E-02   9.52389753712362E-02   0.00000000000000E+00   3.40640241430923E-13  -6.44125683339733E-12
      1.61167422369766E-04   1.61167416269149E-04  -5.70170843832395E-09   9.68563456115016E-01   9.68563456115338E-01
      0.00000000000000E+00  -6.19809604743508E-11  -1.61167354452915E-04   1.64726568039160E-13  -1.61167416269149E-04
      5.70170843832395E-09
      1.05072585526154E-04
      9.40053698964999E-01   9.40053698964691E-01   0.00000000000000E+00  -1.01400508424797E-11  -6.43506957580048E-12
      1.53686677046191E-04   1.53686660471071E-04  -4.98103822006424E-09   1.38678161590107E+00   1.38678161590138E+00
      0.00000000000000E+00   3.79782555461552E-11  -1.53686698614102E-04   1.64775536246691E-13  -1.53686660471071E-04
      4.98103822006424E-09
      1.11010000336443E-04
      1.91372402376801E+00   1.91372402376740E+00   0.00000000000000E+00   3.33970414214397E-10   2.53906314520597E-11
      3.03724673183764E-04   3.03725032544810E-04  -3.80237169920118E-09   1.86837271388338E+00   1.86837271388399E+00
      0.00000000000000E+00  -5.42899739978257E-11  -3.03724977470355E-04  -7.84480706671161E-13  -3.03725032544810E-04
      3.80237169920118E-09
      1.18728639589819E-04
      2.77009528720821E+00   2.77009528720601E+00   0.00000000000000E+00   6.88174283513220E-10   6.26981108631210E-04
      4.75509917483310E-04   1.10249171428880E-03  -1.69472923948281E-09   2.29126147863617E+00   2.29126147863837E+00
      0.00000000000000E+00   6.83692354584497E-11  -1.08435005256312E-03  -1.81417300949144E-05  -1.10249171428880E-03
      1.69472923948281E-09
      1.28762870619207E-04
      2.91654245621131E+00   2.91654245621107E+00   0.00000000000000E+00  -2.18864137549588E-08   5.00609495935774E-03
     -4.88390258175151E-03   1.22170491192471E-04  -1.47660642438973E-09   2.39676411559910E+00   2.39676411559934E+00
      0.00000000000000E+00   1.23101731972978E-10  -3.03334439366639E-05  -9.18371703575395E-05  -1.22170491192471E-04
      1.47660642438973E-09
      1.30393433161482E-04
      2.82938333751373E+00   2.82938333751317E+00   0.00000000000000E+00  -1.03300076018463E-08   7.65319561706230E-04
     -4.84407988601520E-04   2.80901243097108E-04  -1.70259727820101E-09   2.35219719234329E+00   2.35219719234386E+00
      0.00000000000000E+00   8.83458186102920E-11  -2.63669762910996E-04  -1.72315685319305E-05  -2.80901243097108E-04
      1.70259727820102E-09
      1.32513164466441E-04
      2.67189210653094E+00   2.67189210653137E+00   0.00000000000000E+00   1.77560024917453E-09   6.32232332882760E-05
     -2.74578766236945E-04  -2.11353757348420E-04  -2.10285012387936E-09   2.27145830206117E+00   2.27145830206075E+00
      0.00000000000000E+00   1.98598172468941E-11   2.12232025155764E-04  -8.78287667161577E-07   2.11353757348420E-04
      2.10285012387936E-09
      1.33890989814663E-04
      2.54393441023146E+00   2.54393441023195E+00   0.00000000000000E+00   3.60193879772075E-11   1.97507248236129E-06
     -2.47047615038861E-04  -2.45072506537111E-04  -2.42275933181644E-09   2.20608595404357E+00   2.20608595404308E+00
      0.00000000000000E+00   3.90076379454629E-11   2.45150981596144E-04  -7.85140666707706E-08   2.45072506537111E-04
      2.42275933181644E-09
      1.35682162767353E-04
      2.34926491863534E+00   2.34926491863591E+00   0.00000000000000E+00  -4.13023000617029E-11   5.12202370387016E-07
     -2.82120387840925E-04  -2.81608226772838E-04  -2.89729684141626E-09   2.10692618332159E+00   2.10692618332103E+00
      0.00000000000000E+00   2.44684099282756E-11   2.81610093452833E-04  -1.89114840476910E-09   2.81608226772838E-04
      2.89729684141626E-09
      1.35973228372165E-04
      2.31475311025227E+00   2.31475311025284E+00   0.00000000000000E+00  -9.44178622258853E-11   1.12428521091827E-07
     -2.85244865940847E-04  -2.85132531837617E-04  -2.97963343372854E-09   2.08937254494680E+00   2.08937254494623E+00
      0.00000000000000E+00  -5.49237233394693E-12   2.85133562952317E-04  -1.02562232709045E-09   2.85132531837617E-04
      2.97963343372854E-09
      1.36351613658421E-04
      2.26873213880453E+00   2.26873213880511E+00   0.00000000000000E+00  -5.04908173199189E-11   3.71124185610084E-08
     -2.90205842000257E-04  -2.90168780072514E-04  -3.08846517203011E-09   2.06597475332725E+00   2.06597475332667E+00
      0.00000000000000E+00  -4.31651849755038E-11   2.90169248847313E-04  -4.25609614418562E-10   2.90168780072514E-04
      3.08846517203011E-09
      1.36843514530553E-04
      2.20699180985283E+00   2.20699180985342E+00   0.00000000000000E+00  -3.98981727583899E-11   9.97114681525595E-09
     -2.95717938057334E-04  -2.95708006808691E-04  -3.23257876224691E-09   2.03460081069761E+00   2.03460081069702E+00
      0.00000000000000E+00   1.53844539765315E-11   2.95708122812632E-04  -1.31388394805992E-10   2.95708006808691E-04
      3.23257876224691E-09
      1.37482985664326E-04
      2.12358691200110E+00   2.12358691200170E+00   0.00000000000000E+00   3.09583598371392E-11   2.17587881133349E-09
     -3.00509141042672E-04  -3.00506934205501E-04  -3.42327368415954E-09   1.99224347656152E+00   1.99224347656092E+00
      0.00000000000000E+00  -8.82763414740977E-11   3.00507049168712E-04  -2.66868689875288E-11   3.00506934205501E-04
      3.42327368415954E-09
      1.38314298138229E-04
      2.01005682330076E+00   2.01005682330137E+00   0.00000000000000E+00   1.52537710425204E-11   1.94855420905409E-10
     -3.00685507648945E-04  -3.00685297539753E-04  -3.67340422888056E-09   1.93462874971366E+00   1.93462874971306E+00
      0.00000000000000E+00   6.72419069062103E-12   3.00685293725093E-04  -2.90953135702922E-12   3.00685297539753E-04
      3.67340422888056E-09
      1.39395004354304E-04
      1.85431916197663E+00   1.85431916197720E+00   0.00000000000000E+00   9.97334173125420E-11   4.92857117346884E-12
     -2.83431724931729E-04  -2.83431620269740E-04  -3.98996355945263E-09   1.85566412735733E+00   1.85566412735676E+00
      0.00000000000000E+00   8.12876660981221E-11   2.83431538972383E-04   9.69090974277112E-15   2.83431620269740E-04
      3.98996355945263E-09
      1.40799922435202E-04
      1.63919528536259E+00   1.63919528536303E+00   0.00000000000000E+00   2.35921862237849E-10  -6.53870938974334E-12
     -2.18377468445516E-04  -2.18377239062363E-04  -4.34473571593799E-09   1.74671311560492E+00   1.74671311560449E+00
      0.00000000000000E+00  -1.98002790558792E-12   2.18377240879790E-04   1.62601442331892E-13   2.18377239062363E-04
      4.34473571593798E-09
      1.42626315940368E-04
      1.34071396660211E+00   1.34071396660239E+00   0.00000000000000E+00  -2.03720067528213E-11  -6.41413118084886E-12
     -1.36681097210754E-04  -1.36681123996892E-04  -4.65469775356169E-09   1.59575302381985E+00   1.59575302381958E+00
      0.00000000000000E+00  -6.75748613807054E-11   1.36681191406964E-04   1.64789119850950E-13   1.36681123996892E-04
      4.65469775356169E-09
      1.45000627497085E-04
      9.26938491045944E-01   9.26938491046243E-01   0.00000000000000E+00   4.64933746110383E-11  -6.44338478947443E-12
     -1.49631200179118E-04  -1.49631160129129E-04  -5.00292458105262E-09   1.38667291942995E+00   1.38667291942965E+00
      0.00000000000000E+00   4.59153369133210E-11   1.49631114049017E-04   1.64774234089286E-13   1.49631160129129E-04
      5.00292458105262E-09
      1.48087232520816E-04
      3.59680849375320E-01   3.59680849375634E-01   0.00000000000000E+00  -2.90806413288867E-12  -6.44599675452632E-12
     -1.56898143579910E-04  -1.56898152933970E-04  -5.47731456748445E-09   1.10020344166044E+00   1.10020344166013E+00
      0.00000000000000E+00  -2.94524021839384E-11   1.56898182221623E-04   1.64749324894419E-13   1.56898152933971E-04
      5.47731456748445E-09
      1.52099819051667E-04
     -3.94659265773130E-01  -3.94659265772816E-01   0.00000000000000E+00   3.39114293989915E-12  -6.45141470357229E-12
     -1.56862297026582E-04  -1.56862300086854E-04  -6.10798137132304E-09   7.19353955044787E-01   7.19353955044473E-01
      0.00000000000000E+00   3.28638921518073E-12   1.56862296635743E-04   1.64722003589283E-13   1.56862300086854E-04
      6.10798137132303E-09
      1.57316181541774E-04
     -1.33100889467040E+00  -1.33100889467012E+00   0.00000000000000E+00   1.52649277635209E-11  -6.45748951584086E-12
     -1.42007352281638E-04  -1.42007343474200E-04  -6.88985968569692E-09   2.46419866327724E-01   2.46419866327440E-01
      0.00000000000000E+00   2.23273112629277E-11   1.42007320982156E-04   1.64732351295946E-13   1.42007343474200E-04
      6.88985968569693E-09
      1.64097452778912E-04
     -2.32320542868808E+00  -2.32320542868788E+00   0.00000000000000E+00   2.81953036312701E-11  -6.46358138982493E-12
     -1.00550902574680E-04  -1.00550880842958E-04  -7.71631794461565E-09  -2.55353334739757E-01  -2.55353334739958E-01
      0.00000000000000E+00  -1.18818136410225E-11   1.00550892560025E-04   1.64745868444388E-13   1.00550880842958E-04
      7.71631794461565E-09
      1.72913105387192E-04
     -2.97424688933794E+00  -2.97424688933787E+00   0.00000000000000E+00   1.57021532497273E-11  -6.46739352757217E-12
     -3.65236162410540E-05  -3.65236070062943E-05  -8.29859785758893E-09  -5.60388853428149E-01  -5.60388853428222E-01
      0.00000000000000E+00  -3.04236228064466E-12   3.65236098839025E-05   1.64754070031675E-13   3.65236070062943E-05
      8.29859785758893E-09
      1.78643279582573E-04
     -2.92174020807538E+00  -2.92174020807545E+00   0.00000000000000E+00   4.43942945849690E-11  -6.46572422899881E-12
      3.77148085682187E-05   3.77148464967891E-05  -8.29035221287386E-09  -5.12799673149438E-01  -5.12799673149362E-01
      0.00000000000000E+00   8.05447665475497E-13  -3.77148474669907E-05   1.64753960180873E-13  -3.77148464967891E-05
      8.29035221287387E-09
      1.80505586196072E-04
     -2.82228545106692E+00  -2.82228545106703E+00   0.00000000000000E+00   4.57070907268769E-11  -6.46458772768103E-12
      5.51845605119499E-05   5.51845997544529E-05  -8.20450030034979E-09  -4.64394803444304E-01  -4.64394803444193E-01
      0.00000000000000E+00   1.17971192214804E-13  -5.51846000371769E-05   1.64752806102889E-13  -5.51845997544529E-05
      8.20450030034979E-09
      1.82926584793621E-04
     -2.63555876689284E+00  -2.63555876689299E+00   0.00000000000000E+00   3.41460462279999E-11  -6.46267733223551E-12
      7.75806310713034E-05   7.75806587546723E-05  -8.04348308695751E-09  -3.73381641965950E-01  -3.73381641965795E-01
      0.00000000000000E+00   3.76386995002667E-12  -7.75806626832929E-05   1.64750590911652E-13  -7.75806587546723E-05
      8.04348308695751E-09
      1.83713409337825E-04
     -2.56151749498006E+00  -2.56151749498023E+00   0.00000000000000E+00   3.61850665005169E-11  -6.46196990869947E-12
      8.42951618462744E-05   8.42951915693710E-05  -7.97983239159960E-09  -3.37165685545486E-01  -3.37165685545317E-01
      0.00000000000000E+00   5.20032315422701E-12  -8.42951969344438E-05   1.64749696266884E-13  -8.42951915693710E-05
      7.97983239159959E-09
      1.84736281245289E-04
     -2.45593516033995E+00  -2.45593516034014E+00   0.00000000000000E+00   3.26089554996262E-11  -6.46099012477467E-12
      9.28625622168296E-05   9.28625883647950E-05  -7.88921653608119E-09  -2.85423417688084E-01  -2.85423417687899E-01
      0.00000000000000E+00  -2.42511381622707E-12  -9.28625861044295E-05   1.64748403257366E-13  -9.28625883647949E-05
      7.88921653608119E-09
      1.85401147985141E-04
     -2.38183963964866E+00  -2.38183963964885E+00   0.00000000000000E+00   3.20924206653078E-11  -6.46031990299573E-12
      9.82107971163538E-05   9.82108227484546E-05  -7.82570035368511E-09  -2.49059944276865E-01  -2.49059944276668E-01
      0.00000000000000E+00   6.21243752803577E-12  -9.82108291256396E-05   1.64747482993474E-13  -9.82108227484546E-05
      7.82570035368510E-09
      1.86265474746948E-04
     -2.27932243008633E+00  -2.27932243008654E+00   0.00000000000000E+00   3.02890460221644E-11  -6.45941167185037E-12
      1.04938533555494E-04   1.04938557385128E-04  -7.73789918489303E-09  -1.98692834472233E-01  -1.98692834472024E-01
      0.00000000000000E+00  -1.00579740374518E-11  -1.04938547491900E-04   1.64746191317194E-13  -1.04938557385128E-04
      7.73789918489304E-09
      1.87389099537298E-04
     -2.13605025789340E+00  -2.13605025789363E+00   0.00000000000000E+00   2.85049130551621E-11  -6.45817429660166E-12
      1.13231476302846E-04   1.13231498349584E-04  -7.61531081363348E-09  -1.28216944185394E-01  -1.28216944185168E-01
      0.00000000000000E+00  -8.29425379496624E-12  -1.13231490220075E-04   1.64744348501537E-13  -1.13231498349584E-04
      7.61531081363348E-09
      1.88849811764752E-04
     -1.93399959035048E+00  -1.93399959035072E+00   0.00000000000000E+00   2.59658041864394E-11  -6.45648197377161E-12
      1.23176320325815E-04   1.23176339835137E-04  -7.44260562375870E-09  -2.86935298446244E-02  -2.86935298443779E-02
      0.00000000000000E+00  -1.69152923404965E-11  -1.23176323084586E-04   1.64741670010705E-13  -1.23176339835137E-04
      7.44260562375870E-09
      1.90748737660443E-04
     -1.64726732533092E+00  -1.64726732533119E+00   0.00000000000000E+00   2.22865227260107E-11  -6.45416715582356E-12
      1.34535923071376E-04   1.34535938903732E-04  -7.19781158235121E-09   1.12770876109655E-01   1.12770876109924E-01
      0.00000000000000E+00  -9.24830840658895E-13  -1.34535938143639E-04   1.64737695527658E-13  -1.34535938903732E-04
      7.19781158235120E-09
      1.93217341324841E-04
     -1.24015108517645E+00  -1.24015108517675E+00   0.00000000000000E+00   1.75628487039146E-11  -6.45101656695275E-12
      1.46520517301040E-04   1.46520528412872E-04  -6.85068954148663E-09   3.13995288888584E-01   3.13995288888877E-01
      0.00000000000000E+00   1.27701415441124E-11  -1.46520541347745E-04   1.64731654571368E-13  -1.46520528412872E-04
      6.85068954148662E-09
      1.96426526088559E-04
     -6.67938667634525E-01  -6.67938667634839E-01   0.00000000000000E+00   1.03177799297597E-11  -6.44678860620776E-12
      1.57045775742915E-04   1.57045779613906E-04  -6.36299872031639E-09   5.97113075873399E-01   5.97113075873713E-01
      0.00000000000000E+00  -4.94288271024205E-11  -1.57045730349800E-04   1.64721146338005E-13  -1.57045779613906E-04
      6.36299872031639E-09
      2.00598466281392E-04
      1.12781653751321E-01   1.12781653750999E-01   0.00000000000000E+00   5.94546216588477E-13  -6.44123102408209E-12
      1.61365216858655E-04   1.61365211011971E-04  -5.69748180432124E-09   9.83603267497700E-01   9.83603267498023E-01
      0.00000000000000E+00   2.39653355549704E-11  -1.61365235142045E-04   1.64738935094931E-13  -1.61365211011971E-04
      5.69748180432125E-09