DF-ISE text

Info {
  version   = 1.0
  type      = xyplot
  datasets  = [
    "time"
    "v(1)" "v(2)" "v(3)" "i(diod1,3)" "i(diod2,0)"
    "i(diod3,0)" "i(diod4,2)" "i(cout,3)" "i(rout,3)" ]
  functions = [
    Time
    Voltage Voltage Voltage Current Current
    Current Current Current Current ]
}

Data {
      0.00000000000000E+00
      0.00000000000000E+00   0.00000000000000E+00   0.00000000000000E+00   0.00000000000000E+00   0.00000000000000E+00
      0.00000000000000E+00   0.00000000000000E+00   0.00000000000000E+00   0.00000000000000E+00
      0.00000000000000E+00
      0.00000000000000E+00  -2.03076250429793E-16  -2.03122439838444E-16  -2.90281862912877E-22   2.90281862912877E-22
      5.75891569417577E-22  -5.75891569417577E-22   0.00000000000000E+00   4.61894086507268E-23
      0.00000000000000E+00
      0.00000000000000E+00  -2.03076250429793E-16  -2.03122439838444E-16   2.39041876878605E-20  -2.39041876878605E-20
      5.66398266764289E-20  -5.66398266764289E-20   0.00000000000000E+00   4.61894086507268E-23
      5.00000000000000E-06
      9.27050983124842E-01   4.64497941498161E-01   4.62553041627125E-01   1.20448884987008E-04   1.00619810739954E-03
      1.20448884984733E-04   1.00619810739936E-03   8.83804322540097E-04   1.94489987103634E-06
      1.15000000000000E-05
      1.98393559597096E+00   1.35837450914817E+00   6.25561086822781E-01   2.68578566191029E-04   1.76110219017223E-01
      2.68578566191114E-04   1.76110219017660E-01   1.75108827025519E-01   7.32813422325392E-04
      1.99500000000000E-05
      2.85024305730232E+00   2.25162663428083E+00   5.98616423021485E-01   1.04757300470995E-04   6.57579753520636E-02
      1.04757300470994E-04   6.57579753515428E-02   6.40002078401942E-02   1.65301021125934E-03
      3.09350000000000E-05
      2.79381652248722E+00   2.35637859298734E+00   4.37437929499975E-01  -6.04992681169032E-05  -6.22833354639965E-04
     -6.04992681168616E-05  -6.22833354641465E-04  -2.48127475001093E-03   1.91894066348736E-03
      3.18275312500000E-05
      2.72816341841509E+00   2.32261451193315E+00   4.05548906482789E-01  -6.76182387043788E-05  -1.24281588718707E-04
     -6.76182387000388E-05  -1.24281588733893E-04  -1.97372895546432E-03   1.91706560545036E-03
      3.29878218750000E-05
      2.63002514680827E+00   2.27235991944681E+00   3.57665227362884E-01  -7.80601146640667E-05  -2.37627664942500E-04
     -7.80601146604704E-05  -2.37627664953606E-04  -2.07426224236189E-03   1.91469469208393E-03
      3.37420107812500E-05
      2.55870701819744E+00   2.23592022079039E+00   3.22786797409807E-01  -8.45543044267007E-05  -2.41002973906346E-04
     -8.45543044177484E-05  -2.41002973932892E-04  -2.06958209285892E-03   1.91313342338058E-03
      3.47224563593750E-05
      2.45743081848556E+00   2.18426462048573E+00   2.73166198001724E-01  -9.27635593602456E-05  -2.62283640670019E-04
     -9.27635593662759E-05  -2.62283640651900E-04  -2.08061850379438E-03   1.91109842248400E-03
      3.53597459851563E-05
      2.38657636683035E+00   2.14817377548344E+00   2.38402591348974E-01  -9.78966328784716E-05  -2.72861199953924E-04
     -9.78966328785890E-05  -2.72861199953438E-04  -2.08473575120963E-03   1.90977118413447E-03
      3.61882224986719E-05
      2.28876337519853E+00   2.09840286894733E+00   1.90360506254777E-01  -1.04363820702328E-04  -2.84891328320308E-04
     -1.04363820692603E-04  -2.84891328347387E-04  -2.08856987030964E-03   1.90804236269256E-03
      3.72652419662422E-05
      2.15237851829356E+00   2.02908567823470E+00   1.23292840062082E-01  -1.12357112749434E-04  -2.94788700650557E-04
     -1.12357112751953E-04  -2.94788700642838E-04  -2.08822442607687E-03   1.90579283817262E-03
      3.86653672740836E-05
      1.96044721603272E+00   1.93166375470167E+00   2.87834613331082E-02  -1.21986292603780E-04  -2.89190781799033E-04
     -1.21986292608728E-04  -2.89190781785554E-04  -2.07008478256425E-03   1.90288029336857E-03
      4.04855301742774E-05
      1.68850529685532E+00   1.79384465095121E+00  -1.05339361922524E-01  -1.33077944944199E-04  -2.19810327629264E-04
     -1.33077969679983E-04  -2.19810286804258E-04  -1.98591632999762E-03   1.89918401287374E-03
      4.28517419445294E-05
      1.30256837198039E+00   1.59860312415418E+00  -2.96034762995218E-01  -1.44958015262428E-04  -1.32371315088534E-04
     -1.44958013437379E-04  -1.32371317000109E-04  -1.88205119070676E-03   1.89463788714940E-03
      4.59278172458570E-05
      7.59240610194287E-01   1.32403377270530E+00  -5.64793173400024E-01  -1.55824967957958E-04  -1.52688033414995E-04
     -1.55824967942418E-04  -1.52688033390430E-04  -1.88569001156266E-03   1.88882694610532E-03
      4.99267151375828E-05
      1.38138223084978E-02   9.47557432530644E-01  -9.33743621158607E-01  -1.61414047914482E-04  -1.58247489724619E-04
     -1.61414047973835E-04  -1.58247489669270E-04  -1.87813449350280E-03   1.88130105368925E-03
      5.51252823968264E-05
     -9.49481395903221E-01   4.61041009178722E-01  -1.41052241601276E+00  -1.53808748157680E-04  -1.50390638602187E-04
     -1.53808748164984E-04  -1.50390638601631E-04  -1.86814531563702E-03   1.87156342519148E-03
      6.18834198338431E-05
     -2.03756739577476E+00  -8.90633134552744E-02  -1.94850408837133E+00  -3.23196998897013E-04  -1.16761698361519E-04
     -3.23197000698142E-04  -1.16761700162470E-04  -1.65300547438056E-03   1.85944077491605E-03
      7.06689985019648E-05
     -2.88960587055827E+00  -5.17487959658560E-01  -2.37211791096530E+00  -4.02192092484369E-03  -4.58677546984754E-05
     -4.02192092990043E-03  -4.58677568412457E-05   2.12142321580556E-03   1.85462995130674E-03
      8.20902507705229E-05
     -2.70719425122439E+00  -4.14733605777237E-01  -2.29246064516257E+00   1.63479356738670E-03   7.22638084672594E-05
      1.63479356726154E-03   7.22638083422490E-05  -3.44025679830556E-03   1.87772703938533E-03
      8.25542391439331E-05
     -2.66836253399535E+00  -3.95867198562907E-01  -2.27249533513847E+00   1.16082341680515E-04   7.40869847762207E-05
      1.16082341709806E-04   7.40869847685987E-05  -1.91862349347828E-03   1.87662813657556E-03
      8.31574240293663E-05
     -2.61449624318605E+00  -3.69540757615564E-01  -2.24495548527391E+00   2.47183498979357E-04   7.95009463932275E-05
      2.47183498941377E-04   7.95009463898473E-05  -2.04309728024537E-03   1.87541472765834E-03
      8.39415643804295E-05
     -2.53886874430392E+00  -3.32524581564871E-01  -2.20634416243736E+00   2.46754438302790E-04   8.62253643956837E-05
      2.46754438311538E-04   8.62253643826508E-05  -2.03434865477904E-03   1.87381958087248E-03
      8.49609468368117E-05
     -2.43137056378387E+00  -2.79815753917990E-01  -2.15155480956041E+00   2.68756686629108E-04   9.46850558274438E-05
      2.68756686599027E-04   9.46850558264792E-05  -2.04581068644463E-03   1.87173905564242E-03
      8.62861440301085E-05
     -2.27678733548311E+00  -2.03882220498562E-01  -2.07290511467057E+00   2.89302299006871E-04   1.05114968868791E-04
      2.89302299001916E-04   1.05114968854799E-04  -2.05321022430972E-03   1.86902289417200E-03
      8.71475222057514E-05
     -2.16777681679671E+00  -1.50261379932007E-01  -2.01751543654343E+00   2.98015318835913E-04   1.11474787771930E-04
      2.98015318818899E-04   1.11474787755412E-04  -2.05379458767544E-03   1.86725405661142E-03
      8.77074180199193E-05
     -2.09349496143803E+00  -1.13695037234637E-01  -1.97979992387483E+00   3.00536528399727E-04   1.15441174028544E-04
      3.00536528399628E-04   1.15441173997763E-04  -2.05120024840693E-03   1.86610488664020E-03
      8.84352825783376E-05
     -1.99306973353903E+00  -6.42274980267784E-02  -1.92884223517279E+00   2.98677331250774E-04   1.20406720406700E-04
      2.98677331197545E-04   1.20406720380255E-04  -2.04288539390712E-03   1.86461473714601E-03
      8.93815065042813E-05
     -1.85631854303033E+00   3.18718007914775E-03  -1.85950572274244E+00   2.81720505715741E-04   1.26483482960438E-04
      2.81720505644670E-04   1.26483482896328E-04  -2.01792992557729E-03   1.86269290282159E-03
      9.06115976080082E-05
     -1.66881064236407E+00   9.57191073612679E-02  -1.76452974928349E+00   2.26893154836563E-04   1.33704300308792E-04
      2.26893154689541E-04   1.33704300164568E-04  -1.95343771117280E-03   1.86024885664476E-03
      9.22107160428531E-05
     -1.41032931312358E+00   2.23440268598151E-01  -1.63376958114335E+00   1.41817068644605E-04   1.41913264929304E-04
      1.41817068557739E-04   1.41913264841293E-04  -1.85711365345668E-03   1.85720984974150E-03
      9.42895700081516E-05
     -1.05344399839873E+00   3.99954904198248E-01  -1.45339890199649E+00   1.46667966325913E-04   1.50584768407308E-04
      1.46667966335012E-04   1.50584768412652E-04  -1.84943700411326E-03   1.85335380619474E-03
      9.69920801630395E-05
     -5.63610285643023E-01   6.42374678615404E-01  -1.20598496365717E+00   1.55120071911232E-04   1.58093638782147E-04
      1.55120071912409E-04   1.58093638780822E-04  -1.84538607540185E-03   1.84835964227258E-03
      1.00505343364394E-04
      9.52389753715585E-02   9.68563456115016E-01  -8.73324486635705E-01   1.58036733053323E-04   1.61167405469390E-04
      1.58036722263193E-04   1.61167416269149E-04  -1.83875725538659E-03   1.84188794275072E-03
      1.05072585526154E-04
      9.40053698964999E-01   1.38678161590107E+00  -4.46727922909662E-01   1.50333419099365E-04   1.53686660469406E-04
      1.50333419103142E-04   1.53686660471071E-04  -1.83015629744161E-03   1.83350953881073E-03
      1.11010000336443E-04
      1.91372402376801E+00   1.86837271388338E+00   4.53513064479930E-02   1.22202135854058E-04   3.03725031179096E-04
      1.22202137220438E-04   3.03725032544810E-04  -1.64149851211035E-03   1.82302140743539E-03
      1.18728639589819E-04
      2.77009528720821E+00   2.29126147863617E+00   4.78833808345991E-01   6.15912961994218E-05   1.10249171241641E-03
      6.15912980783887E-05   1.10249171428880E-03  -7.71527254072935E-04   1.81242767029018E-03
      1.28762870619207E-04
      2.91654245621131E+00   2.39676411559910E+00   5.19778340618836E-01  -3.86229003226427E-05   1.22170491251330E-04
     -3.86229003496714E-05   1.22170491192471E-04  -1.71619238341280E-03   1.87698577498026E-03
      1.30393433161482E-04
      2.82938333751373E+00   2.35219719234329E+00   4.77186145171193E-01  -5.40254107916904E-05   2.80901243100559E-04
     -5.40254107957862E-05   2.80901243097108E-04  -1.54008439328165E-03   1.87501104717210E-03
      1.32513164466441E-04
      2.67189210653094E+00   2.27145830206117E+00   4.00433804469437E-01  -7.38779958412144E-05  -2.11353757355911E-04
     -7.38779958440604E-05  -2.11353757348420E-04  -2.00850025910655E-03   1.87102449759173E-03
      1.33890989814663E-04
      2.54393441023146E+00   2.20608595404357E+00   3.37848456188242E-01  -8.58198089304406E-05  -2.45072506527402E-04
     -8.58198089271763E-05  -2.45072506537111E-04  -2.02749019545208E-03   1.86823749785533E-03
      1.35682162767353E-04
      2.34926491863534E+00   2.10692618332159E+00   2.42338735315040E-01  -1.00486334565972E-04  -2.81608226764664E-04
     -1.00486334563149E-04  -2.81608226772838E-04  -2.04570934020500E-03   1.86458744800655E-03
      1.35973228372165E-04
      2.31475311025227E+00   2.08937254494680E+00   2.25380565306937E-01  -1.02670171349916E-04  -2.85132531829028E-04
     -1.02670171346840E-04  -2.85132531837617E-04  -2.04645434011824E-03   1.86399197963986E-03
      1.36351613658421E-04
      2.26873213880453E+00   2.06597475332725E+00   2.02757385479225E-01  -1.05564281933378E-04  -2.90168780051693E-04
     -1.05564281925873E-04  -2.90168780072514E-04  -2.04782186596628E-03   1.86321736784802E-03
      1.36843514530553E-04
      2.20699180985283E+00   2.03460081069761E+00   1.72390999156106E-01  -1.09238920404247E-04  -2.95708006844050E-04
     -1.09238920416784E-04  -2.95708006808691E-04  -2.04867889842705E-03   1.86220981154150E-03
      1.37482985664326E-04
      2.12358691200110E+00   1.99224347656152E+00   1.31343435439251E-01  -1.13862777666300E-04  -3.00506934231787E-04
     -1.13862777677137E-04  -3.00506934205501E-04  -2.04754425090123E-03   1.86090004112227E-03
      1.38314298138229E-04
      2.01005682330076E+00   1.93462874971366E+00   7.54280735880136E-02  -1.19601972519173E-04  -3.00685297514804E-04
     -1.19601972509595E-04  -3.00685297539753E-04  -2.04028400112043E-03   1.85920067612565E-03
      1.39395004354304E-04
      1.85431916197663E+00   1.85566412735733E+00  -1.34496537907739E-03  -1.26573784478242E-04  -2.83431620259125E-04
     -1.26573784473397E-04  -2.83431620269740E-04  -2.01386692851695E-03   1.85700909273641E-03
      1.40799922435202E-04
      1.63919528536259E+00   1.74671311560492E+00  -1.07517830241826E-01  -1.34750790939710E-04  -2.18377239070293E-04
     -1.34750790943699E-04  -2.18377239062363E-04  -1.93785739397763E-03   1.85423094584675E-03
      1.42626315940368E-04
      1.34071396660211E+00   1.59575302381985E+00  -2.55039057220811E-01  -1.43849168232480E-04  -1.36681124009228E-04
     -1.43849168244291E-04  -1.36681123996892E-04  -1.84362403681817E-03   1.85079208104066E-03
      1.45000627497085E-04
      9.26938491045944E-01   1.38667291942995E+00  -4.59734428386563E-01  -1.53003185913062E-04  -1.49631160127294E-04
     -1.53003185911194E-04  -1.49631160129129E-04  -1.84303532203048E-03   1.84640734781652E-03
      1.48087232520816E-04
      3.59680849375320E-01   1.10020344166044E+00  -7.40522592288198E-01  -1.59904158678544E-04  -1.56898152934556E-04
     -1.59904158679130E-04  -1.56898152933971E-04  -1.83772002820534E-03   1.84072603394864E-03
      1.52099819051667E-04
     -3.94659265773130E-01   7.19353955044787E-01  -1.11401322082192E+00  -1.60060565372853E-04  -1.56862300088350E-04
     -1.60060565374350E-04  -1.56862300086854E-04  -1.83016891058738E-03   1.83336717586671E-03
      1.57316181541774E-04
     -1.33100889467040E+00   2.46419866327724E-01  -1.57742876100324E+00  -1.47272751910702E-04  -1.42007343474960E-04
     -1.47272751911707E-04  -1.42007343474200E-04  -1.81858321889526E-03   1.82384862733097E-03
      1.64097452778912E-04
     -2.32320542868808E+00  -2.55353334739757E-01  -2.06785209395141E+00  -3.40679214868539E-04  -1.00550880843352E-04
     -3.40679214869096E-04  -1.00550880842958E-04  -1.57237042518654E-03   1.81249875921165E-03
      1.72913105387192E-04
     -2.97424688933794E+00  -5.60388853428149E-01  -2.41385803590977E+00  -1.94231430463440E-02  -3.65236070066276E-05
     -1.94231430464005E-02  -3.65236070062943E-05   1.75331502562417E-02   1.85346918248162E-03
      1.78643279582573E-04
     -2.92174020807538E+00  -5.12799673149438E-01  -2.40894053492594E+00   5.96336351294139E-05   3.77148464967920E-05
      5.96336351314792E-05   3.77148464967891E-05  -1.91805965041092E-03   1.89614086177650E-03
      1.80505586196072E-04
     -2.82228545106692E+00  -4.64394803444304E-01  -2.35789064762296E+00  -1.82153661078952E-04   5.51845997532798E-05
     -1.82153661096800E-04   5.51845997544529E-05  -1.65615758334394E-03   1.89349584417866E-03
      1.82926584793621E-04
     -2.63555876689284E+00  -3.73381641965950E-01  -2.26217712492722E+00   2.29771687298273E-04   7.75806587533533E-05
      2.29771687294104E-04   7.75806587546723E-05  -2.04098651150627E-03   1.88879548296127E-03
      1.83713409337825E-04
     -2.56151749498006E+00  -3.37165685545486E-01  -2.22435180943424E+00   2.42275990336022E-04   8.42951915737087E-05
      2.42275990349274E-04   8.42951915693710E-05  -2.04516692265056E-03   1.88718612388876E-03
      1.84736281245289E-04
     -2.45593516033995E+00  -2.85423417688084E-01  -2.17051174265228E+00   2.63932408062973E-04   9.28625883599920E-05
      2.63932408048619E-04   9.28625883647949E-05  -2.05615814466742E-03   1.88508832496420E-03
      1.85401147985141E-04
     -2.38183963964866E+00  -2.49059944276865E-01  -2.13277969537291E+00   2.75174378945489E-04   9.82108227402506E-05
      2.75174378921827E-04   9.82108227484546E-05  -2.06068330730225E-03   1.88371975109605E-03
      1.86265474746948E-04
     -2.27932243008633E+00  -1.98692834472233E-01  -2.08062959561718E+00   2.87864693479979E-04   1.04938557371532E-04
      2.87864693441744E-04   1.04938557385128E-04  -2.06486289725473E-03   1.88193676114494E-03
      1.87389099537298E-04
     -2.13605025789340E+00  -1.28216944185394E-01  -2.00783331370958E+00   2.98393586812952E-04   1.13231498356720E-04
      2.98393586833015E-04   1.13231498349584E-04  -2.06477845798476E-03   1.87961636952419E-03
      1.88849811764752E-04
     -1.93399959035048E+00  -2.86935298446244E-02  -1.90530606325757E+00   2.92328208496956E-04   1.23176354123464E-04
      2.92328246714488E-04   1.23176339835137E-04  -2.04576444029065E-03   1.87661253341295E-03
      1.90748737660443E-04
     -1.64726732533092E+00   1.12770876109655E-01  -1.76003821713745E+00   2.15744349575097E-04   1.34535901116395E-04
      2.15744292419471E-04   1.34535938903732E-04  -1.95401744677773E-03   1.87280909324711E-03
      1.93217341324841E-04
     -1.24015108517645E+00   3.13995288888584E-01  -1.55414639513520E+00   1.34034076513566E-04   1.46520531509214E-04
      1.34034078734788E-04   1.46520528412872E-04  -1.85565523434979E-03   1.86814168402379E-03
      1.96426526088559E-04
     -6.67938667634525E-01   5.97113075873399E-01  -1.26505176465676E+00   1.53991985338764E-04   1.57045779637003E-04
      1.53991985318424E-04   1.57045779613906E-04  -1.85911104623200E-03   1.86216484053016E-03
      2.00598466281392E-04
      1.12781653751321E-01   9.83603267497700E-01  -8.70821634896086E-01   1.58208774390076E-04   1.61365211004996E-04
      1.58208774394728E-04   1.61365211011971E-04  -1.85126846578298E-03   1.85442490239379E-03
      2.06021988532074E-04
      1.10822628523012E+00   1.47631937093239E+00  -3.68093106828903E-01   1.47403998425949E-04   1.50884284431054E-04
      1.47403998455791E-04   1.50884284455456E-04  -1.84093219175544E-03   1.84441247776129E-03
      2.13072567457962E-04
      2.19624679341335E+00   2.01422620144873E+00   1.82020580835428E-01   1.08476529019795E-04   3.55099583929189E-04
      1.08476529568961E-04   3.55099584480237E-04  -1.58558256570394E-03   1.83220562061330E-03
      2.22238320061615E-04
      2.95494866072825E+00   2.40453944484830E+00   5.50409215874327E-01   3.84331256850104E-05   1.34946862856195E-02
      3.84331252276166E-05   1.34946862848382E-02   1.16021229186371E-02   1.85413022897397E-03
      2.34153798446365E-04
      2.51733195904003E+00   2.19933909341586E+00   3.17992865917014E-01  -8.99898712536716E-05  -4.41926552900383E-04
     -8.99898711246832E-05  -4.41926552771740E-04  -2.23328290914549E-03   1.88134622749884E-03
      2.34395831601055E-04
      2.49222516304041E+00   2.18652764000428E+00   3.05697523336848E-01  -9.00379264831078E-05  -2.82647065787376E-04
     -9.00379264776089E-05  -2.82647065725268E-04  -2.07343925610584E-03   1.88083011666743E-03
      2.34710474702152E-04
      2.45872556537650E+00   2.16945315070330E+00   2.89272414976396E-01  -9.26289089140905E-05  -2.67419679547021E-04
     -9.26289089122995E-05  -2.67419679507579E-04  -2.05497150638179E-03   1.88018073572690E-03
      2.35119510733579E-04
      2.41374150072568E+00   2.14654104429243E+00   2.67200456737647E-01  -9.59491615649602E-05  -2.70594020887730E-04
     -9.59491615714546E-05  -2.70594020834478E-04  -2.05398544687899E-03   1.87934058755479E-03
      2.35651257574433E-04
      2.35288342173620E+00   2.11556541215233E+00   2.37318009891511E-01  -1.00178202148684E-04  -2.79466218707235E-04
     -1.00178202136110E-04  -2.79466218704768E-04  -2.05753541881931E-03   1.87824740226082E-03
      2.36342528467544E-04
      2.26985225198826E+00   2.07333815191966E+00   1.96514100381874E-01  -1.05512852260627E-04  -2.89118943053077E-04
     -1.05512852239892E-04  -2.89118943064751E-04  -2.06043014232930E-03   1.87682405153779E-03
      2.37241180628588E-04
      2.15553545648456E+00   2.01525381474606E+00   1.40281642058044E-01  -1.12156609386456E-04  -2.97879882273304E-04
     -1.12156609378706E-04  -2.97879882228321E-04  -2.06069544557577E-03   1.87497217268802E-03
      2.38409428437945E-04
      1.99670955123977E+00   1.93463979771981E+00   6.20697538568932E-02  -1.20265396650703E-04  -2.98207995936911E-04
     -1.20265396615681E-04  -2.98207995904017E-04  -2.05051264303241E-03   1.87257004386292E-03
      2.39928150590110E-04
      1.77429450658411E+00   1.82189263554247E+00  -4.75981286614807E-02  -1.29832665053818E-04  -2.61192344479698E-04
     -1.29832665323600E-04  -2.61192343646851E-04  -2.00085044252692E-03   1.86949076420395E-03
      2.41902489387923E-04
      1.46134059087241E+00   1.66350541074140E+00  -2.02164819445832E-01  -1.40489650978541E-04  -1.46935288595912E-04
     -1.40489650868061E-04  -1.46935288481315E-04  -1.87211586780471E-03   1.86567023018723E-03
      2.44469129825081E-04
      1.02168672825109E+00   1.44128665472999E+00  -4.19599926030294E-01  -1.51305096216317E-04  -1.46611125049354E-04
     -1.51305096225829E-04  -1.46611125057642E-04  -1.85619260959340E-03   1.86088658076028E-03
      2.47805762393386E-04
      4.12295020081232E-01   1.13349630377298E+00  -7.21201283243292E-01  -1.59609721323055E-04  -1.56591648509073E-04
     -1.59609721323168E-04  -1.56591648508781E-04  -1.85167951420282E-03   1.85469758701627E-03
      2.52143384732183E-04
     -4.02798345446350E-01   7.21942589208579E-01  -1.12474093420496E+00  -1.60130961046136E-04  -1.56907697513642E-04
     -1.60130961044401E-04  -1.56907697515129E-04  -1.84346025988537E-03   1.84668352341354E-03
      2.57782293772618E-04
     -1.40916623634940E+00   2.13579279002081E-01  -1.62274551492288E+00  -1.47380936907300E-04  -1.40033302218862E-04
     -1.47380936888283E-04  -1.40033302196715E-04  -1.82897715923655E-03   1.83632479392496E-03
      2.65112875525185E-04
     -2.43949587306336E+00  -3.07718255092604E-01  -2.13177761774631E+00  -3.20367112611792E-04  -9.26319530720223E-05
     -3.20367112622612E-04  -9.26319530868523E-05  -1.59632420311384E-03   1.82405936265371E-03
      2.74642631803521E-04
     -2.99924375145970E+00  -5.60133987815862E-01  -2.43910976364383E+00  -1.82808122353680E-02  -1.82230565962228E-05
     -1.82808122352775E-02  -1.82230566226301E-05   1.63836125729265E-02   1.87897577582796E-03
      2.80836973384439E-04
     -2.80049531799774E+00  -4.49385390543511E-01  -2.35110992745459E+00   4.79279597851536E-04   5.91649078029609E-05
      4.79279597845939E-04   5.91649078033534E-05  -2.32183922695457E-03   1.90172453691108E-03
      2.81843553891338E-04
     -2.72690578740540E+00  -4.13629931911646E-01  -2.31327585549444E+00   1.26833720362187E-04   6.77576921948576E-05
      1.26833720354444E-04   6.77576921967346E-05  -1.95872195175075E-03   1.89964592358280E-03
      2.83152108550307E-04
     -2.61498744852103E+00  -3.58997134864916E-01  -2.25599031365629E+00   2.41470076304643E-04   7.94910291911954E-05
      2.41470076308758E-04   7.94910291900713E-05  -2.05897222590494E-03   1.89699317879137E-03
      2.84002669078637E-04
     -2.53271416135305E+00  -3.18734772540904E-01  -2.21397938881365E+00   2.47077214412090E-04   8.67578923463775E-05
      2.47077214383967E-04   8.67578923557386E-05  -2.05556393833947E-03   1.89524461627274E-03
      2.85108397765466E-04
     -2.41498486320360E+00  -2.61010115281326E-01  -2.15397474792378E+00   2.70220698286129E-04   9.58943411307686E-05
      2.70220698284256E-04   9.58943411315157E-05  -2.06729098979791E-03   1.89296463264245E-03
      2.85827121411905E-04
     -2.33217459035028E+00  -2.20348544525950E-01  -2.11182604582483E+00   2.81171305222452E-04   1.01566267438636E-04
      2.81171305242009E-04   1.01566267431869E-04  -2.07108253908188E-03   1.89147750129888E-03
      2.86761462152275E-04
     -2.21743862247499E+00  -1.63948770276494E-01  -2.05348985219986E+00   2.92742181886809E-04   1.08667222104218E-04
      2.92742181870468E-04   1.08667222110085E-04  -2.07361604170641E-03   1.88954108192337E-03
      2.87368783633516E-04
     -2.13873741837072E+00  -1.25227601537906E-01  -2.01350981683512E+00   2.96852430243070E-04   1.13065021217960E-04
      2.96852430217734E-04   1.13065021227352E-04  -2.07206964596124E-03   1.88828221529722E-03
      2.88158301559129E-04
     -2.03178829581803E+00  -7.25697107148836E-02  -1.95921858510551E+00   2.96892598715153E-04   1.18562913835727E-04
      2.96892598709208E-04   1.18562913835399E-04  -2.06497870532112E-03   1.88664887439062E-03
      2.89184674862426E-04
     -1.88532197045478E+00  -3.90356138410066E-04  -1.88493161431907E+00   2.81192814886938E-04   1.25272901003671E-04
      2.81192814883968E-04   1.25272901005568E-04  -2.04046117206413E-03   1.88454125818066E-03
      2.90518960156712E-04
     -1.68329303000988E+00   9.92848082843545E-02  -1.78257783835212E+00   2.23127382365484E-04   1.33205427880705E-04
      2.23127382958465E-04   1.33205427615404E-04  -1.97178460199428E-03   1.88186264663647E-03
      2.92253531039283E-04
     -1.40320118689231E+00   2.37668286702166E-01  -1.64086947366966E+00   1.37952837478066E-04   1.42142488282642E-04
      1.37952837489343E-04   1.42142488287508E-04  -1.87434810956703E-03   1.87853776037182E-03
      2.94508473186626E-04
     -1.01471088149605E+00   4.29799271701140E-01  -1.44451015327280E+00   1.47727699628528E-04   1.51390690882238E-04
      1.47727699631966E-04   1.51390690877408E-04  -1.87064643372004E-03   1.87430942497394E-03
      2.97439897978172E-04
     -4.80489508120645E-01   6.94171091327041E-01  -1.17466059952297E+00   1.55933221886538E-04   1.58955944266977E-04
      1.55933221887659E-04   1.58955944265888E-04  -1.86580896846986E-03   1.86883169085001E-03
      3.01250750207182E-04
      2.35518261722302E-01   1.04862674565675E+00  -8.13108484007467E-01   1.57681521581044E-04   1.60884529704772E-04
      1.57681521584062E-04   1.60884529701797E-04  -1.85853222154596E-03   1.86173522966422E-03
      3.06204858104895E-04
      1.14018435553384E+00   1.49636785140506E+00  -3.56183495945245E-01   1.46495995604048E-04   1.50035202198010E-04
      1.46495995603051E-04   1.50035202199270E-04  -1.84901214075656E-03   1.85255134735031E-03
      3.12645198371922E-04
      2.14058477736659E+00   1.99094824451223E+00   1.49636532813542E-01   1.11289721991186E-04   3.50688947754757E-04
      1.11289721993278E-04   3.50688947758885E-04  -1.60191248593513E-03   1.84131171169869E-03
      3.21017640719057E-04
      2.90657464120704E+00   2.37517817582534E+00   5.31396465381549E-01   4.46142645311703E-05   6.76872746731235E-03
      4.46142645382085E-05   6.76872746817247E-03   4.88033149578409E-03   1.84378171044379E-03
      3.31901815770332E-04
      2.72230947541342E+00   2.29883278013036E+00   4.23476695283606E-01  -7.05502009586920E-05  -1.73309977669961E-03
     -7.05502009584604E-05  -1.73309977669734E-03  -3.53790566058872E-03   1.87535608484675E-03
      3.32343985381790E-04
      2.68624191204457E+00   2.28026739024076E+00   4.05974521803685E-01  -7.22142395899702E-05  -1.16051315914395E-04
     -7.22142395995399E-05  -1.16051315881702E-04  -1.91812994476236E-03   1.87429286843708E-03
      3.32918805876686E-04
      2.63625890868615E+00   2.25469844443131E+00   3.81560464254215E-01  -7.74115760683868E-05  -2.41950010151283E-04
     -7.74115760740197E-05  -2.41950010133357E-04  -2.03767641426079E-03   1.87313798017709E-03
      3.33666072520050E-04
      2.56615079460968E+00   2.21888634091177E+00   3.47264453697622E-01  -8.38790798945958E-05  -2.41350819224891E-04
     -8.38790798914494E-05  -2.41350819234765E-04  -2.02909362654423E-03   1.87162188721415E-03
      3.34637519156423E-04
      2.46657909537673E+00   2.16811168965804E+00   2.98467405717747E-01  -9.20399601119045E-05  -2.62913082292887E-04
     -9.20399601158638E-05  -2.62913082281113E-04  -2.04051740612172E-03   1.86964428394029E-03
      3.35900399783709E-04
      2.32346151098648E+00   2.09526168874433E+00   2.28199822240371E-01  -1.02148635564659E-04  -2.84107313319921E-04
     -1.02148635568711E-04  -2.84107313308436E-04  -2.04902054425943E-03   1.86706186650396E-03
      3.36721272191444E-04
      2.22253407432852E+00   2.04395648806456E+00   1.78577586262786E-01  -1.08349782749366E-04  -2.94387069867101E-04
     -1.08349782745029E-04  -2.94387069879632E-04  -2.05141618891922E-03   1.86537890180177E-03
      3.37254839256472E-04
      2.15374399712093E+00   2.00901424326701E+00   1.44729753852659E-01  -1.12233277454954E-04  -2.98829381153520E-04
     -1.12233277456795E-04  -2.98829381149008E-04  -2.05088060243853E-03   1.86428448941435E-03
      3.37948476441009E-04
      2.06071025975295E+00   1.96178671795716E+00   9.89235417942197E-02  -1.17114504849355E-04  -3.01198424166366E-04
     -1.17114504851898E-04  -3.01198424170005E-04  -2.04694715844320E-03   1.86286317616294E-03
      3.38850204780906E-04
      1.93394295689882E+00   1.89748325050194E+00   3.64597063952864E-02  -1.23128668369873E-04  -2.94456016130578E-04
     -1.23128668370118E-04  -2.94456016130773E-04  -2.03235089186762E-03   1.86102354410665E-03
      3.40022451622773E-04
      1.75993021831239E+00   1.80929810545158E+00  -4.93678871405125E-02  -1.30349734191396E-04  -2.59480204205693E-04
     -1.30349734188930E-04  -2.59480204212059E-04  -1.98779646260621E-03   1.85866599259210E-03
      3.41546372517199E-04
      1.51959401792478E+00   1.68765433755662E+00  -1.68060319633603E-01  -1.38666642023606E-04  -1.67944116689545E-04
     -1.38666642024149E-04  -1.67944116690261E-04  -1.88499213185619E-03   1.85571465719022E-03
      3.43527469679954E-04
      1.18668984630590E+00   1.51935933722775E+00  -3.32669490925447E-01  -1.47696824606471E-04  -1.41456676605589E-04
     -1.47696824610988E-04  -1.41456676600952E-04  -1.84578868015259E-03   1.85202882815320E-03
      3.46102895991535E-04
      7.27268106136356E-01   1.28727018270601E+00  -5.60002076575682E-01  -1.56121651239297E-04  -1.53136159090117E-04