DF-ISE text

Info {
  version   = 1.0
  type      = xyplot
  datasets  = [
    "time"
    "bazza_cont OuterVoltage" "bazza_cont InnerVoltage" "bazza_cont QuasiFermiPotential" "bazza_cont DisplacementCurrent" "bazza_cont eCurrent"
    "bazza_cont hCurrent" "bazza_cont TotalCurrent" "bazza_cont Charge" "emitter_cont OuterVoltage" "emitter_cont InnerVoltage"
    "emitter_cont QuasiFermiPotential" "emitter_cont DisplacementCurrent" "emitter_cont eCurrent" "emitter_cont hCurrent" "emitter_cont TotalCurrent"
    "emitter_cont Charge" ]
  functions = [
    Time
    OuterVoltage InnerVoltage QuasiFermiPotential DisplacementCurrent eCurrent
    hCurrent TotalCurrent Charge OuterVoltage InnerVoltage
    QuasiFermiPotential DisplacementCurrent eCurrent hCurrent TotalCurrent
    Charge ]
}

Data {
      0.00000000000000E+00
      0.00000000000000E+00   0.00000000000000E+00   0.00000000000000E+00   0.00000000000000E+00  -3.10227337559649E-18
     -2.03726816470337E-30  -3.10227337559853E-18  -9.26603324035135E-15   0.00000000000000E+00   0.00000000000000E+00
      0.00000000000000E+00   0.00000000000000E+00   3.10227337559649E-18   2.03726816470337E-30   3.10227337559853E-18
      9.26603324035140E-15
      0.00000000000000E+00
      0.00000000000000E+00   0.00000000000000E+00   0.00000000000000E+00   0.00000000000000E+00  -1.37275596870145E-16
     -1.37708755339378E-31  -1.37275596870145E-16  -9.26603324028216E-15   0.00000000000000E+00   0.00000000000000E+00
      0.00000000000000E+00   0.00000000000000E+00   1.37275596870145E-16   1.37708755339378E-31   1.37275596870145E-16
      9.26603324028215E-15
      1.00000000000000E-02
      0.00000000000000E+00   0.00000000000000E+00   0.00000000000000E+00   0.00000000000000E+00   1.73659465986013E-17
      3.45229200465274E-18   2.08182386032541E-17  -9.25350371190968E-15  -1.20000000000000E-02  -1.20000000000000E-02
      0.00000000000000E+00   0.00000000000000E+00  -1.73659465986013E-17  -3.45229200465274E-18  -2.08182386032541E-17
      9.25350371190963E-15
      2.08000000000000E-02
      0.00000000000000E+00   0.00000000000000E+00   0.00000000000000E+00   0.00000000000000E+00  -7.66795014749263E-17
      9.43451989130540E-18  -6.72449815836209E-17  -9.23996687615561E-15  -2.49600000000000E-02  -2.49600000000000E-02
      0.00000000000000E+00   0.00000000000000E+00   7.66795014749263E-17  -9.43451989130540E-18   6.72449815836209E-17
      9.23996687615569E-15
      3.26080000000000E-02
      0.00000000000000E+00   0.00000000000000E+00   0.00000000000000E+00   0.00000000000000E+00   7.69357372443796E-17
      2.03959200382762E-17   9.73316572826558E-17  -9.22515699643763E-15  -3.91296000000000E-02  -3.91296000000000E-02
      0.00000000000000E+00   0.00000000000000E+00  -7.69357372443796E-17  -2.03959200382762E-17  -9.73316572826558E-17
      9.22515699643762E-15
      4.55180800000000E-02
      0.00000000000000E+00   0.00000000000000E+00   0.00000000000000E+00   0.00000000000000E+00   1.23017423011053E-16
      4.15449524315314E-17   1.64562375442584E-16  -9.20894989300033E-15  -5.46216960000000E-02  -5.46216960000000E-02
      0.00000000000000E+00   0.00000000000000E+00  -1.23017423011053E-16  -4.15449524315314E-17  -1.64562375442584E-16
      9.20894989300041E-15
      5.96331008000000E-02
      0.00000000000000E+00   0.00000000000000E+00   0.00000000000000E+00   0.00000000000000E+00   2.99001307016916E-16
      8.47337087398459E-17   3.83735015756762E-16  -9.19120990407136E-15  -7.15597209600000E-02  -7.15597209600000E-02
      0.00000000000000E+00   0.00000000000000E+00  -2.99001307016916E-16  -8.47337087398459E-17  -3.83735015756762E-16
      9.19120990407132E-15
      7.50655235413333E-02
      0.00000000000000E+00   0.00000000000000E+00   0.00000000000000E+00   0.00000000000000E+00   7.56882286574459E-16
      1.78533318505036E-16   9.35415605079495E-16  -9.17179035034758E-15  -9.00786282496000E-02  -9.00786282496000E-02
      0.00000000000000E+00   0.00000000000000E+00  -7.56882286574460E-16  -1.78533318505036E-16  -9.35415605079495E-16
      9.17179035034768E-15
      9.19383057385245E-02
      0.00000000000000E+00   0.00000000000000E+00   0.00000000000000E+00   0.00000000000000E+00   2.06694648081073E-15
      3.96213021483883E-16   2.46315950229461E-15  -9.15053498626651E-15  -1.10325966886229E-01  -1.10325966886229E-01
      0.00000000000000E+00   0.00000000000000E+00  -2.06694648081073E-15  -3.96213021483883E-16  -2.46315950229461E-15
      9.15053498626659E-15
      1.10385880940787E-01
      0.00000000000000E+00   0.00000000000000E+00   0.00000000000000E+00   0.00000000000000E+00   5.18313609168611E-15
      9.38820888381162E-16   6.12195698006727E-15  -9.12728047885903E-15  -1.32463057128944E-01  -1.32463057128944E-01
      0.00000000000000E+00   0.00000000000000E+00  -5.18313609168611E-15  -9.38820888381162E-16  -6.12195698006727E-15
      9.12728047885905E-15
      1.30555229828594E-01
      0.00000000000000E+00   0.00000000000000E+00   0.00000000000000E+00   0.00000000000000E+00   1.23690811662845E-14
      2.40062614149376E-15   1.47697073077783E-14  -9.10185931115772E-15  -1.56666275794312E-01  -1.56666275794312E-01
      0.00000000000000E+00   0.00000000000000E+00  -1.23690811662845E-14  -2.40062614149376E-15  -1.47697073077783E-14
      9.10185931115774E-15
      1.52607051279262E-01
      0.00000000000000E+00   0.00000000000000E+00   0.00000000000000E+00   0.00000000000000E+00   2.78472379929351E-14
      6.68735586428580E-15   3.45345938572209E-14  -9.07410110807754E-15  -1.83128461535115E-01  -1.83128461535115E-01
      0.00000000000000E+00   0.00000000000000E+00  -2.78472379929351E-14  -6.68735586428580E-15  -3.45345938572209E-14
      9.07410110807752E-15
      1.76717042731993E-01
      0.00000000000000E+00   0.00000000000000E+00   0.00000000000000E+00   0.00000000000000E+00   6.23656546119835E-14
      2.04802684211527E-14   8.28459230331362E-14  -9.04382763978397E-15  -2.12060451278392E-01  -2.12060451278392E-01
      0.00000000000000E+00   0.00000000000000E+00  -6.23656546119835E-14  -2.04802684211527E-14  -8.28459230331362E-14
      9.04382763978395E-15
      2.03077300053646E-01
      0.00000000000000E+00   0.00000000000000E+00   0.00000000000000E+00   0.00000000000000E+00   7.97582987209618E-14
      6.96036945830847E-14   1.49361993304047E-13  -9.01083171220980E-15  -2.43692760064375E-01  -2.43692760064375E-01
      0.00000000000000E+00   0.00000000000000E+00  -7.97582987209618E-14  -6.96036945830847E-14  -1.49361993304047E-13
      9.01083171220973E-15
      2.31722113009842E-01
      0.00000000000000E+00   0.00000000000000E+00   0.00000000000000E+00   0.00000000000000E+00   3.01452082536679E-13
      2.62974920052762E-13   5.64427002589441E-13  -8.97504208774275E-15  -2.78066535611811E-01  -2.78066535611811E-01
      0.00000000000000E+00   0.00000000000000E+00  -3.01452082536679E-13  -2.62974920052762E-13  -5.64427002589441E-13
      8.97504208774274E-15
      2.62849476422242E-01
      0.00000000000000E+00   0.00000000000000E+00   0.00000000000000E+00   0.00000000000000E+00   1.27820950403630E-12
      1.11479967872155E-12   2.39300918275785E-12  -8.93602063804065E-15  -3.15419371706690E-01  -3.15419371706690E-01
      0.00000000000000E+00   0.00000000000000E+00  -1.27820950403630E-12  -1.11479967872155E-12  -2.39300918275785E-12
      8.93602063804043E-15
      2.96674544663716E-01
      0.00000000000000E+00   0.00000000000000E+00   0.00000000000000E+00   0.00000000000000E+00   6.14251386147428E-12
      5.35560810860034E-12   1.14981219700746E-11  -8.89302564626667E-15  -3.56009453596459E-01  -3.56009453596459E-01
      0.00000000000000E+00   0.00000000000000E+00  -6.14251386147428E-12  -5.35560810860034E-12  -1.14981219700746E-11
      8.89302564626673E-15
      3.33431118819452E-01
      0.00000000000000E+00   0.00000000000000E+00   0.00000000000000E+00   0.00000000000000E+00   3.38153080882449E-11
      2.94711571154848E-11   6.32864652037297E-11  -8.84504776554038E-15  -4.00117342583342E-01  -4.00117342583342E-01
      0.00000000000000E+00   0.00000000000000E+00  -3.38153080882449E-11  -2.94711571154848E-11  -6.32864652037297E-11
      8.84504776554046E-15
      3.73373262735351E-01
      0.00000000000000E+00   0.00000000000000E+00   0.00000000000000E+00   0.00000000000000E+00   2.15657547642536E-10
      1.87799017231254E-10   4.03456564873789E-10  -8.79129305125703E-15  -4.48047915282421E-01  -4.48047915282421E-01
      0.00000000000000E+00   0.00000000000000E+00  -2.15657547642536E-10  -1.87799017231254E-10  -4.03456564873789E-10
      8.79129305125703E-15
      4.16777059123961E-01
      0.00000000000000E+00   0.00000000000000E+00   0.00000000000000E+00   0.00000000000000E+00   1.60624571776874E-09
      1.39414422675046E-09   3.00038994451919E-09  -8.73189647156508E-15  -5.00132470948753E-01  -5.00132470948753E-01
      0.00000000000000E+00   0.00000000000000E+00  -1.60624571776874E-09  -1.39414422675046E-09  -3.00038994451919E-09
      8.73189647156513E-15
      4.63942517866251E-01
      0.00000000000000E+00   0.00000000000000E+00   0.00000000000000E+00   0.00000000000000E+00   1.36061174983817E-08
      1.15487929342331E-08   2.51549104326148E-08  -8.66849470052435E-15  -5.56731021439501E-01  -5.56731021439501E-01
      0.00000000000000E+00   0.00000000000000E+00  -1.36061174983817E-08  -1.15487929342331E-08  -2.51549104326148E-08
      8.66849470052434E-15
      5.15195649699539E-01
      0.00000000000000E+00   0.00000000000000E+00   0.00000000000000E+00   0.00000000000000E+00   1.04953087700053E-07
      7.95818948335678E-08   1.84534982533620E-07  -8.60629571242606E-15  -6.18234779639447E-01  -6.18234779639447E-01
      0.00000000000000E+00   0.00000000000000E+00  -1.04953087700053E-07  -7.95818948335678E-08  -1.84534982533620E-07
      8.60629571242603E-15
      5.70549032079491E-01
      0.00000000000000E+00   0.00000000000000E+00   0.00000000000000E+00   0.00000000000000E+00   5.02451415728484E-07
      3.12705789182827E-07   8.15157204911312E-07  -8.55022890573171E-15  -6.84658838495389E-01  -6.84658838495389E-01
      0.00000000000000E+00   0.00000000000000E+00  -5.02451415728484E-07  -3.12705789182827E-07  -8.15157204911312E-07
      8.55022890573167E-15
      6.30330685049838E-01
      0.00000000000000E+00   0.00000000000000E+00   0.00000000000000E+00   0.00000000000000E+00   1.50652826540497E-06
      7.97530740701372E-07   2.30405900610635E-06  -8.49757824576941E-15  -7.56396822059806E-01  -7.56396822059806E-01
      0.00000000000000E+00   0.00000000000000E+00  -1.50652826540497E-06  -7.97530740701372E-07  -2.30405900610635E-06
      8.49757824576940E-15
      6.94894870257814E-01
      0.00000000000000E+00   0.00000000000000E+00   0.00000000000000E+00   0.00000000000000E+00   3.31161487926702E-06
      1.57484104508328E-06   4.88645592435030E-06  -8.44711344230183E-15  -8.33873844309376E-01  -8.33873844309376E-01
      0.00000000000000E+00   0.00000000000000E+00  -3.31161487926702E-06  -1.57484104508328E-06  -4.88645592435030E-06
      8.44711344230180E-15
      7.64624190282427E-01
      0.00000000000000E+00   0.00000000000000E+00   0.00000000000000E+00   0.00000000000000E+00   5.92634877384966E-06
      2.62639931482155E-06   8.55274808867122E-06  -8.39972423951818E-15  -9.17549028338912E-01  -9.17549028338912E-01
      0.00000000000000E+00   0.00000000000000E+00  -5.92634877384966E-06  -2.62639931482155E-06  -8.55274808867122E-06
      8.39972423951814E-15
      8.40396718042507E-01
      0.00000000000000E+00   0.00000000000000E+00   0.00000000000000E+00   0.00000000000000E+00   9.24802253085854E-06
      3.90395811605329E-06   1.31519806469118E-05  -8.35585674304293E-15  -1.00847606165101E+00  -1.00847606165101E+00
      0.00000000000000E+00   0.00000000000000E+00  -9.24802253085854E-06  -3.90395811605329E-06  -1.31519806469118E-05
      8.35585674304292E-15
      9.22736198208461E-01
      0.00000000000000E+00   0.00000000000000E+00   0.00000000000000E+00   0.00000000000000E+00   1.31677144164195E-05
      5.36478527847882E-06   1.85324996948984E-05  -8.31523247975714E-15  -1.10728343785015E+00  -1.10728343785015E+00
      0.00000000000000E+00   0.00000000000000E+00  -1.31677144164195E-05  -5.36478527847882E-06  -1.85324996948984E-05
      8.31523247975715E-15
      1.00000000000000E+00
      0.00000000000000E+00   0.00000000000000E+00   0.00000000000000E+00   0.00000000000000E+00   1.70276338405709E-05
      6.77159032187386E-06   2.37992241624448E-05  -8.28191429383276E-15  -1.20000000000000E+00  -1.20000000000000E+00
      0.00000000000000E+00   0.00000000000000E+00  -1.70276338405709E-05  -6.77159032187386E-06  -2.37992241624448E-05
      8.28191429383275E-15
}
