DF-ISE text

Info {
  version   = 1.0
  type      = xyplot
  datasets  = [
    "time"
    "basa_cont OuterVoltage" "basa_cont InnerVoltage" "basa_cont QuasiFermiPotential" "basa_cont DisplacementCurrent" "basa_cont eCurrent"
    "basa_cont hCurrent" "basa_cont TotalCurrent" "basa_cont Charge" "emitter_cont OuterVoltage" "emitter_cont InnerVoltage"
    "emitter_cont QuasiFermiPotential" "emitter_cont DisplacementCurrent" "emitter_cont eCurrent" "emitter_cont hCurrent" "emitter_cont TotalCurrent"
    "emitter_cont Charge" ]
  functions = [
    Time
    OuterVoltage InnerVoltage QuasiFermiPotential DisplacementCurrent eCurrent
    hCurrent TotalCurrent Charge OuterVoltage InnerVoltage
    QuasiFermiPotential DisplacementCurrent eCurrent hCurrent TotalCurrent
    Charge ]
}

Data {
      0.00000000000000E+00
      0.00000000000000E+00   0.00000000000000E+00   0.00000000000000E+00   0.00000000000000E+00   0.00000000000000E+00
     -1.33464298067211E-23  -1.33464298067211E-23  -6.45454084685746E-08   0.00000000000000E+00   0.00000000000000E+00
      0.00000000000000E+00   0.00000000000000E+00   0.00000000000000E+00   1.33464298067211E-23   1.33464298067211E-23
      6.45454084685735E-08
      0.00000000000000E+00
     -1.77902427062055E-16  -1.83689474415054E-16   0.00000000000000E+00   0.00000000000000E+00  -2.13757211140562E-08
     -6.49299328512266E-24  -2.13757211140562E-08  -6.45454084679466E-08   0.00000000000000E+00   0.00000000000000E+00
      0.00000000000000E+00   0.00000000000000E+00   2.13757211140562E-08   6.49299328512266E-24   2.13757211140562E-08
      6.45454084679423E-08
      1.00000000000000E-03
      2.39593015344643E-07   2.39593015370916E-07   0.00000000000000E+00   0.00000000000000E+00  -5.89058586828519E-09
      2.81655593913662E-16  -5.89058558662960E-09  -6.45454073276719E-08   0.00000000000000E+00   0.00000000000000E+00
      0.00000000000000E+00   0.00000000000000E+00   5.89058586828519E-09  -2.81655593913662E-16   5.89058558662960E-09
      6.45454073276738E-08
      2.08666666666667E-03
      8.18783544848151E-07   8.18783544848778E-07   0.00000000000000E+00   0.00000000000000E+00  -2.78742549843396E-08
      9.62538624314762E-16  -2.78742540218010E-08  -6.45454045711777E-08   0.00000000000000E+00   0.00000000000000E+00
      0.00000000000000E+00   0.00000000000000E+00   2.78742549843396E-08  -9.62538624314762E-16   2.78742540218010E-08
      6.45454045711791E-08
      3.27475555555556E-03
      1.94749126312846E-06   1.94749126310524E-06   0.00000000000000E+00   0.00000000000000E+00  -1.54765260156492E-08
      2.28946554296661E-15  -1.54765237261837E-08  -6.45453991994097E-08   0.00000000000000E+00   0.00000000000000E+00
      0.00000000000000E+00   0.00000000000000E+00   1.54765260156492E-08  -2.28946554296661E-15   1.54765237261837E-08
      6.45453991994125E-08
      4.57373274074074E-03
      4.14339263601153E-06   4.14339263598594E-06   0.00000000000000E+00   0.00000000000000E+00  -3.54341988973829E-11
      4.87116598647552E-15  -3.54293277313965E-11  -6.45453887486482E-08   0.00000000000000E+00   0.00000000000000E+00
      0.00000000000000E+00   0.00000000000000E+00   3.54341988973829E-11  -4.87116598647552E-15   3.54293277313965E-11
      6.45453887486544E-08
      5.99394779654321E-03
      7.73806168107567E-06   7.73806168105445E-06   0.00000000000000E+00   0.00000000000000E+00   8.42843628925673E-09
      9.09786121835767E-15   8.42844538711795E-09  -6.45453716408407E-08   0.00000000000000E+00   0.00000000000000E+00
      0.00000000000000E+00   0.00000000000000E+00  -8.42843628925673E-09  -9.09786121835767E-15  -8.42844538711795E-09
      6.45453716408428E-08
      7.54671625755391E-03
      1.35067807053493E-05   1.35067807053376E-05   0.00000000000000E+00   0.00000000000000E+00   2.60605771720105E-08
      1.58820511690015E-14   2.60605930540616E-08  -6.45453441862521E-08   0.00000000000000E+00   0.00000000000000E+00
      0.00000000000000E+00   0.00000000000000E+00  -2.60605771720105E-08  -1.58820511690015E-14  -2.60605930540616E-08
      6.45453441862526E-08
      9.24440977492561E-03
      2.25530749866388E-05   2.25530749866377E-05   0.00000000000000E+00   0.00000000000000E+00   2.63528534028753E-08
      2.65238029468215E-14   2.63528799266783E-08  -6.45453011329305E-08   0.00000000000000E+00   0.00000000000000E+00
      0.00000000000000E+00   0.00000000000000E+00  -2.63528534028753E-08  -2.65238029468215E-14  -2.63528799266783E-08
      6.45453011329318E-08
      1.11005546872520E-02
      3.44915324015586E-05   3.44915324015618E-05   0.00000000000000E+00   0.00000000000000E+00   5.73460818414092E-08
      4.05734796963270E-14   5.73461224148889E-08  -6.45452443151115E-08   0.00000000000000E+00   0.00000000000000E+00
      0.00000000000000E+00   0.00000000000000E+00  -5.73460818414092E-08  -4.05734796963270E-14  -5.73461224148889E-08
      6.45452443151084E-08
      1.31299397913955E-02
      5.04202315451317E-05   5.04202315451338E-05   0.00000000000000E+00   0.00000000000000E+00   2.33310136301183E-08
      5.93290044319432E-14   2.33310729591228E-08  -6.45451685067217E-08   0.00000000000000E+00   0.00000000000000E+00
      0.00000000000000E+00   0.00000000000000E+00  -2.33310136301183E-08  -5.93290044319433E-14  -2.33310729591228E-08
      6.45451685067197E-08
      1.53487341719258E-02
      7.43934649476514E-05   7.43934649476824E-05   0.00000000000000E+00   0.00000000000000E+00   9.44102523875089E-08
      8.75782533251853E-14   9.44103399657623E-08  -6.45450544123017E-08   0.00000000000000E+00   0.00000000000000E+00
      0.00000000000000E+00   0.00000000000000E+00  -9.44102523875089E-08  -8.75782533251853E-14  -9.44103399657623E-08
      6.45450544122991E-08
      1.65542791186805E-02
      1.08219991561712E-04   1.08219991561709E-04   0.00000000000000E+00   0.00000000000000E+00   9.13119268220657E-08
      1.27482385678701E-13   9.13120543044514E-08  -6.45448934232180E-08   0.00000000000000E+00   0.00000000000000E+00
      0.00000000000000E+00   0.00000000000000E+00  -9.13119268220657E-08  -1.27482385678701E-13  -9.13120543044514E-08
      6.45448934232184E-08
      1.68697300464147E-02
      1.28547207989783E-04   1.28547207989800E-04   0.00000000000000E+00   0.00000000000000E+00   5.31609987237967E-08
      1.51486613608955E-13   5.31611502104103E-08  -6.45447966805558E-08   0.00000000000000E+00   0.00000000000000E+00
      0.00000000000000E+00   0.00000000000000E+00  -5.31609987237967E-08  -1.51486613608955E-13  -5.31611502104103E-08
      6.45447966805562E-08
      1.69120530458857E-02
      1.70521816627666E-04   1.70521816627624E-04   0.00000000000000E+00   0.00000000000000E+00   5.87723442982565E-08
      2.01112990747301E-13   5.87725454112472E-08  -6.45445969115462E-08   0.00000000000000E+00   0.00000000000000E+00
      0.00000000000000E+00   0.00000000000000E+00  -5.87723442982565E-08  -2.01112990747301E-13  -5.87725454112472E-08
      6.45445969115462E-08
