DF-ISE text

Info {
  version   = 1.0
  type      = xyplot
  datasets  = [
    "time"
    "basa_cont OuterVoltage" "basa_cont InnerVoltage" "basa_cont QuasiFermiPotential" "basa_cont DisplacementCurrent" "basa_cont eCurrent"
    "basa_cont hCurrent" "basa_cont TotalCurrent" "basa_cont Charge" "emitter_cont OuterVoltage" "emitter_cont InnerVoltage"
    "emitter_cont QuasiFermiPotential" "emitter_cont DisplacementCurrent" "emitter_cont eCurrent" "emitter_cont hCurrent" "emitter_cont TotalCurrent"
    "emitter_cont Charge" ]
  functions = [
    Time
    OuterVoltage InnerVoltage QuasiFermiPotential DisplacementCurrent eCurrent
    hCurrent TotalCurrent Charge OuterVoltage InnerVoltage
    QuasiFermiPotential DisplacementCurrent eCurrent hCurrent TotalCurrent
    Charge ]
}

Data {
      0.00000000000000E+00
      0.00000000000000E+00   0.00000000000000E+00   0.00000000000000E+00   0.00000000000000E+00   0.00000000000000E+00
     -1.33464298067211E-23  -1.33464298067211E-23  -6.45454084685746E-08   0.00000000000000E+00   0.00000000000000E+00
      0.00000000000000E+00   0.00000000000000E+00   0.00000000000000E+00   1.33464298067211E-23   1.33464298067211E-23
      6.45454084685735E-08
      0.00000000000000E+00
      0.00000000000000E+00   0.00000000000000E+00   0.00000000000000E+00   0.00000000000000E+00  -2.15622544333622E-08
     -6.07109008593739E-24  -2.15622544333622E-08  -6.45454084679468E-08  -1.84712987175952E-16  -1.83689474415054E-16
      0.00000000000000E+00   0.00000000000000E+00   2.15622544333622E-08   6.07109008593739E-24   2.15622544333622E-08
      6.45454084679423E-08
      1.00000000000000E-03
      2.40000000000000E-03   2.40000000000004E-03   0.00000000000000E+00   0.00000000000000E+00  -3.06900329193062E-08
      2.95364604213934E-12  -3.06870792732641E-08  -6.45339861479982E-08   2.37574827170766E-07   2.37574827197854E-07
      0.00000000000000E+00   0.00000000000000E+00   3.06900329193062E-08  -2.95364604213934E-12   3.06870792732641E-08
      6.45339861479955E-08
      2.08666666666667E-03
      5.00800000000000E-03   5.00800000000013E-03   0.00000000000000E+00   0.00000000000000E+00   4.96896065197415E-09
      6.48174829375371E-12   4.97544240026790E-09  -6.45215723202568E-08   8.14485499484474E-07   8.14485499448096E-07
      0.00000000000000E+00   0.00000000000000E+00  -4.96896065197415E-09  -6.48174829375371E-12  -4.97544240026790E-09
      6.45215723202529E-08
      3.27475555555556E-03
      7.85941333333333E-03   7.85941333333327E-03   0.00000000000000E+00   0.00000000000000E+00  -1.36954126588437E-08
      1.07569668831678E-11  -1.36846556919605E-08  -6.45079984461316E-08   1.94044089686762E-06   1.94044089691281E-06
      0.00000000000000E+00   0.00000000000000E+00   1.36954126588437E-08  -1.07569668831678E-11   1.36846556919605E-08
      6.45079984461257E-08
      4.57373274074074E-03
      1.09769585777778E-02   1.09769585777781E-02   0.00000000000000E+00   0.00000000000000E+00  -2.01499744178152E-09
      1.59864049660997E-11  -1.99901103681542E-09  -6.44931576651744E-08   4.14166190650559E-06   4.14166190659411E-06
      0.00000000000000E+00   0.00000000000000E+00   2.01499744178152E-09  -1.59864049660997E-11   1.99901103681542E-09
      6.44931576651740E-08
      5.99394779654321E-03
      1.43854747117037E-02   1.43854747117038E-02   0.00000000000000E+00   0.00000000000000E+00  -4.23724740932740E-10
      2.24503557668106E-11  -4.01274385165930E-10  -6.44769317315965E-08   7.73545983353267E-06   7.73545983353684E-06
      0.00000000000000E+00   0.00000000000000E+00   4.23724740932740E-10  -2.24503557668106E-11   4.01274385165930E-10
      6.44769317315941E-08
      7.54671625755391E-03
      1.81121190181294E-02   1.81121190181294E-02   0.00000000000000E+00   0.00000000000000E+00  -6.22303850638516E-09
      3.05318391862929E-11  -6.19250666719887E-09  -6.44591932846675E-08   1.35172211724312E-05   1.35172211724636E-05
      0.00000000000000E+00   0.00000000000000E+00   6.22303850638516E-09  -3.05318391862929E-11   6.19250666719887E-09
      6.44591932846677E-08
      9.24440977492561E-03
      2.21865834598215E-02   2.21865834598212E-02   0.00000000000000E+00   0.00000000000000E+00   3.08454366547758E-08
      4.07626254166061E-11   3.08861992801924E-08  -6.44398038912508E-08   2.25794880428028E-05   2.25794880427859E-05
      0.00000000000000E+00   0.00000000000000E+00  -3.08454366547758E-08  -4.07626254166061E-11  -3.08861992801924E-08
      6.44398038912520E-08
      1.11005546872520E-02
      2.66413312494048E-02   2.66413312494049E-02   0.00000000000000E+00   0.00000000000000E+00   4.70929263596042E-08
      5.38987839451485E-11   4.71468251435494E-08  -6.44186042006039E-08   3.45001145280823E-05   3.45001145280138E-05
      0.00000000000000E+00   0.00000000000000E+00  -4.70929263596042E-08  -5.38987839451485E-11  -4.71468251435494E-08
      6.44186042006105E-08
      1.31299397913955E-02
      3.15118554993493E-02   3.15118554993489E-02   0.00000000000000E+00   0.00000000000000E+00   3.47085488293734E-08
      7.10228147354150E-11   3.47795716441089E-08  -6.43954273867398E-08   5.04351741609635E-05   5.04351741609135E-05
      0.00000000000000E+00   0.00000000000000E+00  -3.47085488293734E-08  -7.10228147354149E-11  -3.47795716441089E-08
      6.43954273867443E-08
      1.53487341719258E-02
      3.68369620126219E-02   3.68369620126216E-02   0.00000000000000E+00   0.00000000000000E+00   6.27225460524824E-08
      9.37069778529081E-11   6.28162530303353E-08  -6.43701040124256E-08   7.44295330989875E-05   7.44295330989855E-05
      0.00000000000000E+00   0.00000000000000E+00  -6.27225460524824E-08  -9.37069778529081E-11  -6.28162530303353E-08
      6.43701040124324E-08
      1.65542791186805E-02
      3.97302698848333E-02   3.97302698848325E-02   0.00000000000000E+00   0.00000000000000E+00   7.32742769370328E-08
      1.07981746625300E-10   7.33822586836581E-08  -6.43564379041101E-08   1.08255128263456E-04   1.08255128263456E-04
      0.00000000000000E+00   0.00000000000000E+00  -7.32742769370328E-08  -1.07981746625300E-10  -7.33822586836581E-08
      6.43564379041008E-08
      1.68697300464147E-02
      4.04873521113953E-02   4.04873521113951E-02   0.00000000000000E+00   0.00000000000000E+00   4.14973643737014E-08
      1.11918722442334E-10   4.16092830961438E-08  -6.43529160762883E-08   1.28584564468989E-04   1.28584564468999E-04
      0.00000000000000E+00   0.00000000000000E+00  -4.14973643737014E-08  -1.11918722442334E-10  -4.16092830961438E-08
      6.43529160762826E-08
      1.69120530458857E-02
      4.05889273101257E-02   4.05889273101251E-02   0.00000000000000E+00   0.00000000000000E+00   8.07574482859977E-08
      1.12242048916750E-10   8.08696903349145E-08  -6.43526311797861E-08   1.70563207058938E-04   1.70563207058927E-04
      0.00000000000000E+00   0.00000000000000E+00  -8.07574482859977E-08  -1.12242048916750E-10  -8.08696903349145E-08
      6.43526311797840E-08
