DF-ISE text

Info {
  version   = 1.0
  type      = xyplot
  datasets  = [
    "time"
    "basa_cont OuterVoltage" "basa_cont InnerVoltage" "basa_cont QuasiFermiPotential" "basa_cont DisplacementCurrent" "basa_cont eCurrent"
    "basa_cont hCurrent" "basa_cont TotalCurrent" "basa_cont Charge" "emitter_cont OuterVoltage" "emitter_cont InnerVoltage"
    "emitter_cont QuasiFermiPotential" "emitter_cont DisplacementCurrent" "emitter_cont eCurrent" "emitter_cont hCurrent" "emitter_cont TotalCurrent"
    "emitter_cont Charge" ]
  functions = [
    Time
    OuterVoltage InnerVoltage QuasiFermiPotential DisplacementCurrent eCurrent
    hCurrent TotalCurrent Charge OuterVoltage InnerVoltage
    QuasiFermiPotential DisplacementCurrent eCurrent hCurrent TotalCurrent
    Charge ]
}

Data {
      0.00000000000000E+00
      0.00000000000000E+00   0.00000000000000E+00   0.00000000000000E+00   0.00000000000000E+00   0.00000000000000E+00
     -1.33464298067211E-23  -1.33464298067211E-23  -6.45454084685746E-08   0.00000000000000E+00   0.00000000000000E+00
      0.00000000000000E+00   0.00000000000000E+00   0.00000000000000E+00   1.33464298067211E-23   1.33464298067211E-23
      6.45454084685735E-08
      0.00000000000000E+00
     -1.77902427062055E-16  -1.83689474415054E-16   0.00000000000000E+00   0.00000000000000E+00  -2.13757211140562E-08
     -6.49299328512266E-24  -2.13757211140562E-08  -6.45454084679466E-08   0.00000000000000E+00   0.00000000000000E+00
      0.00000000000000E+00   0.00000000000000E+00   2.13757211140562E-08   6.49299328512266E-24   2.13757211140562E-08
      6.45454084679423E-08
      1.00000000000000E-03
      2.39593015344643E-07   2.39593015370916E-07   0.00000000000000E+00   0.00000000000000E+00  -8.52170294890976E-09
     -2.69192172850461E-12  -8.52439487063826E-09  -6.45568281255204E-08   2.40000000000000E-03   2.39999999999991E-03
      0.00000000000000E+00   0.00000000000000E+00   8.52170294890976E-09   2.69192172850461E-12   8.52439487063826E-09
      6.45568281255241E-08
      2.08666666666667E-03
      8.18783544848151E-07   8.18783544848778E-07   0.00000000000000E+00   0.00000000000000E+00  -4.79390630616390E-09
     -5.34073612489031E-12  -4.79924704228879E-09  -6.45692330519421E-08   5.00800000000000E-03   5.00800000000013E-03
      0.00000000000000E+00   0.00000000000000E+00   4.79390630616390E-09   5.34073612489031E-12   4.79924704228880E-09
      6.45692330519422E-08
      3.27475555555556E-03
      1.94749126312846E-06   1.94749126310524E-06   0.00000000000000E+00   0.00000000000000E+00  -2.70976795714436E-10
     -7.93792596389721E-12  -2.78914721678333E-10  -6.45827900583706E-08   7.85941333333333E-03   7.85941333333327E-03
      0.00000000000000E+00   0.00000000000000E+00   2.70976795714436E-10   7.93792596389721E-12   2.78914721678333E-10
      6.45827900583783E-08
      4.57373274074074E-03
      4.14339263601153E-06   4.14339263598594E-06   0.00000000000000E+00   0.00000000000000E+00  -3.48343799445499E-08
     -1.04568243782814E-11  -3.48448367689282E-08  -6.45976039678872E-08   1.09769585777778E-02   1.09769585777775E-02
      0.00000000000000E+00   0.00000000000000E+00   3.48343799445499E-08   1.04568243782814E-11   3.48448367689282E-08
      6.45976039678872E-08
      5.99394779654321E-03
      7.73806168107567E-06   7.73806168105445E-06   0.00000000000000E+00   0.00000000000000E+00  -6.25073866171448E-09
     -1.28708132788996E-11  -6.26360947499338E-09  -6.46137904731216E-08   1.43854747117037E-02   1.43854747117038E-02
      0.00000000000000E+00   0.00000000000000E+00   6.25073866171448E-09   1.28708132788996E-11   6.26360947499338E-09
      6.46137904731209E-08
      7.54671625755391E-03
      1.35067807053493E-05   1.35067807053376E-05   0.00000000000000E+00   0.00000000000000E+00   2.31787745958846E-09
     -1.51536564346466E-11   2.30272380315381E-09  -6.46314740926274E-08   1.81121190181294E-02   1.81121190181299E-02
      0.00000000000000E+00   0.00000000000000E+00  -2.31787745958846E-09   1.51536564346466E-11  -2.30272380315381E-09
      6.46314740926280E-08
      9.24440977492561E-03
      2.25530749866388E-05   2.25530749866377E-05   0.00000000000000E+00   0.00000000000000E+00   2.60673139371685E-08
     -1.72806613751088E-11   2.60500332757934E-08  -6.46507897736022E-08   2.21865834598215E-02   2.21865834598211E-02
      0.00000000000000E+00   0.00000000000000E+00  -2.60673139371685E-08   1.72806613751088E-11  -2.60500332757934E-08
      6.46507897736044E-08
      1.11005546872520E-02
      3.44915324015586E-05   3.44915324015618E-05   0.00000000000000E+00   0.00000000000000E+00   1.32730006977414E-08
     -1.92304857708698E-11   1.32537702119706E-08  -6.46718926913804E-08   2.66413312494048E-02   2.66413312494049E-02
      0.00000000000000E+00   0.00000000000000E+00  -1.32730006977414E-08   1.92304857708698E-11  -1.32537702119706E-08
      6.46718926913767E-08
      1.31299397913955E-02
      5.04202315451317E-05   5.04202315451338E-05   0.00000000000000E+00   0.00000000000000E+00   7.23491002003581E-08
     -2.09845302566464E-11   7.23281156701015E-08  -6.46949454273499E-08   3.15118554993493E-02   3.15118554993489E-02
      0.00000000000000E+00   0.00000000000000E+00  -7.23491002003581E-08   2.09845302566464E-11  -7.23281156701015E-08
      6.46949454273501E-08
      1.53487341719258E-02
      7.43934649476514E-05   7.43934649476824E-05   0.00000000000000E+00   0.00000000000000E+00   1.00923134974662E-07
     -2.25279768369911E-11   1.00900606997825E-07  -6.47201124432608E-08   3.68369620126219E-02   3.68369620126216E-02
      0.00000000000000E+00   0.00000000000000E+00  -1.00923134974662E-07   2.25279768369911E-11  -1.00900606997825E-07
      6.47201124432591E-08
      1.65542791186805E-02
      1.08219991561712E-04   1.08219991561709E-04   0.00000000000000E+00   0.00000000000000E+00   1.13340514553693E-07
     -2.32244717767261E-11   1.13317290081917E-07  -6.47336855530512E-08   3.97302698848333E-02   3.97302698848325E-02
      0.00000000000000E+00   0.00000000000000E+00  -1.13340514553693E-07   2.32244717767261E-11  -1.13317290081917E-07
      6.47336855530411E-08
      1.68697300464147E-02
      1.28547207989783E-04   1.28547207989800E-04   0.00000000000000E+00   0.00000000000000E+00   1.01225455307336E-07
     -2.33901832964075E-11   1.01202065124039E-07  -6.47371824952893E-08   4.04873521113953E-02   4.04873521113951E-02
      0.00000000000000E+00   0.00000000000000E+00  -1.01225455307335E-07   2.33901832964075E-11  -1.01202065124039E-07
      6.47371824952780E-08
      1.69120530458857E-02
      1.70521816627666E-04   1.70521816627624E-04   0.00000000000000E+00   0.00000000000000E+00   6.66718726201545E-08
     -2.34033540098661E-11   6.66484692661446E-08  -6.47374653806100E-08   4.05889273101257E-02   4.05889273101251E-02
      0.00000000000000E+00   0.00000000000000E+00  -6.66718726201545E-08   2.34033540098661E-11  -6.66484692661446E-08
      6.47374653806030E-08
