DF-ISE text

Info {
  version   = 1.0
  type      = xyplot
  datasets  = [
    "time"
    "basa_cont OuterVoltage" "basa_cont InnerVoltage" "basa_cont QuasiFermiPotential" "basa_cont DisplacementCurrent" "basa_cont eCurrent"
    "basa_cont hCurrent" "basa_cont TotalCurrent" "basa_cont Charge" "emitter_cont OuterVoltage" "emitter_cont InnerVoltage"
    "emitter_cont QuasiFermiPotential" "emitter_cont DisplacementCurrent" "emitter_cont eCurrent" "emitter_cont hCurrent" "emitter_cont TotalCurrent"
    "emitter_cont Charge" ]
  functions = [
    Time
    OuterVoltage InnerVoltage QuasiFermiPotential DisplacementCurrent eCurrent
    hCurrent TotalCurrent Charge OuterVoltage InnerVoltage
    QuasiFermiPotential DisplacementCurrent eCurrent hCurrent TotalCurrent
    Charge ]
}

Data {
      0.00000000000000E+00
      0.00000000000000E+00   0.00000000000000E+00   0.00000000000000E+00   0.00000000000000E+00   0.00000000000000E+00
     -1.33464298067211E-23  -1.33464298067211E-23  -6.45454084685746E-08   0.00000000000000E+00   0.00000000000000E+00
      0.00000000000000E+00   0.00000000000000E+00   0.00000000000000E+00   1.33464298067211E-23   1.33464298067211E-23
      6.45454084685735E-08
      0.00000000000000E+00
      0.00000000000000E+00   0.00000000000000E+00   0.00000000000000E+00   0.00000000000000E+00  -2.15622544333622E-08
     -6.07109008593739E-24  -2.15622544333622E-08  -6.45454084679468E-08  -1.84712987175952E-16  -1.83689474415054E-16
      0.00000000000000E+00   0.00000000000000E+00   2.15622544333622E-08   6.07109008593739E-24   2.15622544333622E-08
      6.45454084679423E-08
      1.00000000000000E-03
      0.00000000000000E+00   0.00000000000000E+00   0.00000000000000E+00   0.00000000000000E+00  -1.04673889564399E-08
     -2.79280776642959E-16  -1.04673892357207E-08  -6.45454095986146E-08   2.37574827170766E-07   2.37574827197854E-07
      0.00000000000000E+00   0.00000000000000E+00   1.04673889564399E-08   2.79280776642959E-16   1.04673892357207E-08
      6.45454095986157E-08
      2.08666666666667E-03
      0.00000000000000E+00   0.00000000000000E+00   0.00000000000000E+00   0.00000000000000E+00   2.38303489771836E-08
     -9.57456736958247E-16   2.38303480197268E-08  -6.45454123442527E-08   8.14485499484474E-07   8.14485499448096E-07
      0.00000000000000E+00   0.00000000000000E+00  -2.38303489771836E-08   9.57456736958247E-16  -2.38303480197268E-08
      6.45454123442526E-08
      3.27475555555556E-03
      0.00000000000000E+00   0.00000000000000E+00   0.00000000000000E+00   0.00000000000000E+00   1.78891050065776E-08
     -2.28100748339719E-15   1.78891027255701E-08  -6.45454177029139E-08   1.94044089686762E-06   1.94044089691281E-06
      0.00000000000000E+00   0.00000000000000E+00  -1.78891050065776E-08   2.28100748339719E-15  -1.78891027255701E-08
      6.45454177029143E-08
      4.57373274074074E-03
      0.00000000000000E+00   0.00000000000000E+00   0.00000000000000E+00   0.00000000000000E+00   5.64478521653662E-09
     -4.86835957721037E-15   5.64478034817705E-09  -6.45454281789930E-08   4.14166190650559E-06   4.14166190659411E-06
      0.00000000000000E+00   0.00000000000000E+00  -5.64478521653662E-09   4.86835957721037E-15  -5.64478034817705E-09
      6.45454281789883E-08
      5.99394779654321E-03
      0.00000000000000E+00   0.00000000000000E+00   0.00000000000000E+00   0.00000000000000E+00  -1.92813681362145E-08
     -9.09209291293406E-15  -1.92813772283074E-08  -6.45454452826326E-08   7.73545983353267E-06   7.73545983353684E-06
      0.00000000000000E+00   0.00000000000000E+00   1.92813681362145E-08   9.09209291293406E-15   1.92813772283074E-08
      6.45454452826317E-08
      7.54671625755391E-03
      0.00000000000000E+00   0.00000000000000E+00   0.00000000000000E+00   0.00000000000000E+00   2.76151028941313E-08
     -1.58860583248850E-14   2.76150870080730E-08  -6.45454727992465E-08   1.35172211724312E-05   1.35172211724636E-05
      0.00000000000000E+00   0.00000000000000E+00  -2.76151028941313E-08   1.58860583248850E-14  -2.76150870080730E-08
      6.45454727992396E-08
      9.24440977492561E-03
      0.00000000000000E+00   0.00000000000000E+00   0.00000000000000E+00   0.00000000000000E+00   1.42023599576206E-08
     -2.65317712621021E-14   1.42023334258493E-08  -6.45455159284234E-08   2.25794880428028E-05   2.25794880427859E-05
      0.00000000000000E+00   0.00000000000000E+00  -1.42023599576206E-08   2.65317712621021E-14  -1.42023334258493E-08
      6.45455159284257E-08
      1.11005546872520E-02
      0.00000000000000E+00   0.00000000000000E+00   0.00000000000000E+00   0.00000000000000E+00   1.02306351280900E-09
     -4.05295247466523E-14   1.02302298328426E-09  -6.45455726610768E-08   3.45001145280823E-05   3.45001145280138E-05
      0.00000000000000E+00   0.00000000000000E+00  -1.02306351280900E-09   4.05295247466523E-14  -1.02302298328426E-09
      6.45455726610712E-08
      1.31299397913955E-02
      0.00000000000000E+00   0.00000000000000E+00   0.00000000000000E+00   0.00000000000000E+00   1.02923346106297E-08
     -5.92310680606174E-14   1.02922753795617E-08  -6.45456484991082E-08   5.04351741609635E-05   5.04351741609135E-05
      0.00000000000000E+00   0.00000000000000E+00  -1.02923346106297E-08   5.92310680606174E-14  -1.02922753795617E-08
      6.45456484991073E-08
      1.53487341719258E-02
      0.00000000000000E+00   0.00000000000000E+00   0.00000000000000E+00   0.00000000000000E+00   8.37018049876582E-08
     -8.73691446294835E-14   8.37017176185136E-08  -6.45457626926925E-08   7.44295330989875E-05   7.44295330989855E-05
      0.00000000000000E+00   0.00000000000000E+00  -8.37018049876583E-08   8.73691446294835E-14  -8.37017176185136E-08
      6.45457626926901E-08
      1.65542791186805E-02
      0.00000000000000E+00   0.00000000000000E+00   0.00000000000000E+00   0.00000000000000E+00   6.93006494119480E-08
     -1.26991415607255E-13   6.93005224205324E-08  -6.45459236744889E-08   1.08255128263456E-04   1.08255128263456E-04
      0.00000000000000E+00   0.00000000000000E+00  -6.93006494119480E-08   1.26991415607255E-13  -6.93005224205324E-08
      6.45459236744902E-08
      1.68697300464147E-02
      0.00000000000000E+00   0.00000000000000E+00   0.00000000000000E+00   0.00000000000000E+00   7.35228252402989E-08
     -1.50779463198133E-13   7.35226744608357E-08  -6.45460204255023E-08   1.28584564468989E-04   1.28584564468999E-04
      0.00000000000000E+00   0.00000000000000E+00  -7.35228252402989E-08   1.50779463198132E-13  -7.35226744608357E-08
      6.45460204255040E-08
      1.69120530458857E-02
      0.00000000000000E+00   0.00000000000000E+00   0.00000000000000E+00   0.00000000000000E+00   8.35267506418480E-08
     -1.99839993631313E-13   8.35265508018544E-08  -6.45462202079255E-08   1.70563207058938E-04   1.70563207058927E-04
      0.00000000000000E+00   0.00000000000000E+00  -8.35267506418480E-08   1.99839993631313E-13  -8.35265508018544E-08
      6.45462202079281E-08
