DF-ISE text

Info {
  version   = 1.0
  type      = xyplot
  datasets  = [
    "time"
    "v(1)" "v(2)" "v(3)" "i(diod1,3)" "i(diod2,0)"
    "i(diod3,0)" "i(diod4,2)" "i(cout,3)" "i(rout,3)" ]
  functions = [
    Time
    Voltage Voltage Voltage Current Current
    Current Current Current Current ]
}

Data {
      0.00000000000000E+00
      0.00000000000000E+00   0.00000000000000E+00   0.00000000000000E+00   0.00000000000000E+00   0.00000000000000E+00
      0.00000000000000E+00   0.00000000000000E+00   0.00000000000000E+00   0.00000000000000E+00
      0.00000000000000E+00
      0.00000000000000E+00  -1.84712987175952E-16  -1.77902427062055E-16   2.13757211140562E-08  -2.13757211140562E-08
      2.15622544333622E-08  -2.15622544333622E-08   0.00000000000000E+00  -6.81056011389715E-21
      1.00000000000000E-03
      2.40000000000000E-03   2.37574827170766E-07   2.39593015344643E-07   8.52439487063826E-09  -5.89058558662960E-09
      1.04673892357207E-08  -3.06870792732641E-08   0.00000000000000E+00  -2.01818817387701E-12
      2.08666666666667E-03
      5.00800000000000E-03   8.14485499484474E-07   8.18783544848151E-07   4.79924704228879E-09  -2.78742540218010E-08
     -2.38303480197268E-08   4.97544240026790E-09   0.00000000000000E+00  -4.29804536367694E-12
      3.27475555555556E-03
      7.85941333333333E-03   1.94044089686762E-06   1.94749126312846E-06   2.78914721678333E-10  -1.54765237261837E-08
     -1.78891027255701E-08  -1.36846556919605E-08   0.00000000000000E+00  -7.05036626083311E-12
      4.57373274074074E-03
      1.09769585777778E-02   4.14166190650559E-06   4.14339263601153E-06   3.48448367689282E-08  -3.54293277313965E-11
     -5.64478034817705E-09  -1.99901103681542E-09   0.00000000000000E+00  -1.73072950593525E-12
      5.99394779654321E-03
      1.43854747117037E-02   7.73545983353267E-06   7.73806168107567E-06   6.26360947499338E-09   8.42844538711795E-09
      1.92813772283074E-08  -4.01274385165930E-10   0.00000000000000E+00  -2.60184754299869E-12
      7.54671625755391E-03
      1.81121190181294E-02   1.35172211724312E-05   1.35067807053493E-05  -2.30272380315381E-09   2.60605930540616E-08
     -2.76150870080730E-08  -6.19250666719887E-09   0.00000000000000E+00   1.04404670818475E-11
      9.24440977492561E-03
      2.21865834598215E-02   2.25794880428028E-05   2.25530749866388E-05  -2.60500332757934E-08   2.63528799266783E-08
     -1.42023334258493E-08   3.08861992801924E-08   0.00000000000000E+00   2.64130561639546E-11
      1.11005546872520E-02
      2.66413312494048E-02   3.45001145280823E-05   3.44915324015586E-05  -1.32537702119706E-08   5.73461224148889E-08
     -1.02302298328426E-09   4.71468251435494E-08   0.00000000000000E+00   8.58212652374924E-12
      1.31299397913955E-02
      3.15118554993493E-02   5.04351741609635E-05   5.04202315451317E-05  -7.23281156701015E-08   2.33310729591228E-08
     -1.02922753795617E-08   3.47795716441089E-08   0.00000000000000E+00   1.49426158317493E-11
      1.53487341719258E-02
      3.68369620126219E-02   7.44295330989875E-05   7.43934649476514E-05  -1.00900606997825E-07   9.44103399657623E-08
     -8.37017176185136E-08   6.28162530303353E-08   0.00000000000000E+00   3.60681513360378E-11
      1.65542791186805E-02
      3.97302698848333E-02   1.08255128263456E-04   1.08219991561712E-04  -1.13317290081917E-07   9.13120543044514E-08
     -6.93005224205324E-08   7.33822586836581E-08   0.00000000000000E+00   3.51367017441291E-11
      1.68697300464147E-02
      4.04873521113953E-02   1.28584564468989E-04   1.28547207989783E-04  -1.01202065124039E-07   5.31611502104103E-08
     -7.35226744608357E-08   4.16092830961438E-08   0.00000000000000E+00   3.73564792061469E-11
      1.69120530458857E-02
      4.05889273101257E-02   1.70563207058938E-04   1.70521816627666E-04  -6.66484692661446E-08   5.87725454112472E-08
     -8.35265508018544E-08   8.08696903349145E-08   0.00000000000000E+00   4.13904312718597E-11
