DF-ISE text

Info {
  version   = 1.0
  type      = xyplot
  datasets  = [
    "time"
    "basa_cont OuterVoltage" "basa_cont InnerVoltage" "basa_cont QuasiFermiPotential" "basa_cont DisplacementCurrent" "basa_cont eCurrent"
    "basa_cont hCurrent" "basa_cont TotalCurrent" "basa_cont Charge" "emitter_cont OuterVoltage" "emitter_cont InnerVoltage"
    "emitter_cont QuasiFermiPotential" "emitter_cont DisplacementCurrent" "emitter_cont eCurrent" "emitter_cont hCurrent" "emitter_cont TotalCurrent"
    "emitter_cont Charge" ]
  functions = [
    Time
    OuterVoltage InnerVoltage QuasiFermiPotential DisplacementCurrent eCurrent
    hCurrent TotalCurrent Charge OuterVoltage InnerVoltage
    QuasiFermiPotential DisplacementCurrent eCurrent hCurrent TotalCurrent
    Charge ]
}

Data {
      0.00000000000000E+00
      0.00000000000000E+00   0.00000000000000E+00   0.00000000000000E+00   0.00000000000000E+00   0.00000000000000E+00
     -2.66928596134423E-29  -2.66928596134423E-29  -1.29090816937149E-13   0.00000000000000E+00   0.00000000000000E+00
      0.00000000000000E+00   0.00000000000000E+00   0.00000000000000E+00   2.66928596134423E-29   2.66928596134423E-29
      1.29090816937147E-13
      0.00000000000000E+00
      0.00000000000000E+00   0.00000000000000E+00   0.00000000000000E+00   0.00000000000000E+00  -4.27973581220955E-14
     -1.21051638729896E-29  -4.27973581220955E-14  -1.29090816935894E-13   0.00000000000000E+00   0.00000000000000E+00
      0.00000000000000E+00   0.00000000000000E+00   4.27973581220955E-14   1.21051638729896E-29   4.27973581220955E-14
      1.29090816935885E-13
      1.00000000000000E-02
      0.00000000000000E+00   0.00000000000000E+00   0.00000000000000E+00   0.00000000000000E+00   1.26986144296770E-14
      3.56994866392198E-17   1.27343139163162E-14  -1.28976526642714E-13  -1.20000000000000E-02  -1.20000000000000E-02
      0.00000000000000E+00   0.00000000000000E+00  -1.26986144296770E-14  -3.56994866392198E-17  -1.27343139163162E-14
      1.28976526642717E-13
      2.08000000000000E-02
      0.00000000000000E+00   0.00000000000000E+00   0.00000000000000E+00   0.00000000000000E+00   2.71859541678713E-14
      9.75400057825268E-17   2.72834941736538E-14  -1.28852927166284E-13  -2.49600000000000E-02  -2.49600000000000E-02
      0.00000000000000E+00   0.00000000000000E+00  -2.71859541678713E-14  -9.75400057825268E-17  -2.72834941736538E-14
      1.28852927166276E-13
      3.26080000000000E-02
      0.00000000000000E+00   0.00000000000000E+00   0.00000000000000E+00   0.00000000000000E+00  -8.44366019268015E-15
      2.10822830601325E-16  -8.23283736207883E-15  -1.28717583164490E-13  -3.91296000000000E-02  -3.91296000000000E-02
      0.00000000000000E+00   0.00000000000000E+00   8.44366019268015E-15  -2.10822830601325E-16   8.23283736207883E-15
      1.28717583164499E-13
      4.55180800000000E-02
      0.00000000000000E+00   0.00000000000000E+00   0.00000000000000E+00   0.00000000000000E+00  -9.15735110623717E-15
      4.29360510315610E-16  -8.72799059592156E-15  -1.28569359053583E-13  -5.46216960000000E-02  -5.46216960000000E-02
      0.00000000000000E+00   0.00000000000000E+00   9.15735110623717E-15  -4.29360510315610E-16   8.72799059592156E-15
      1.28569359053582E-13
      5.96331008000000E-02
      0.00000000000000E+00   0.00000000000000E+00   0.00000000000000E+00   0.00000000000000E+00  -1.05905739683968E-14
      8.75619232597803E-16  -9.71495473579896E-15  -1.28407029585596E-13  -7.15597209600000E-02  -7.15597209600000E-02
      0.00000000000000E+00   0.00000000000000E+00   1.05905739683968E-14  -8.75619232597803E-16   9.71495473579896E-15
      1.28407029585596E-13
      7.50655235413333E-02
      0.00000000000000E+00   0.00000000000000E+00   0.00000000000000E+00   0.00000000000000E+00   5.14803434201505E-16
      1.84482507215496E-15   2.35962850635646E-15  -1.28229290936023E-13  -9.00786282496000E-02  -9.00786282496000E-02
      0.00000000000000E+00   0.00000000000000E+00  -5.14803434201505E-16  -1.84482507215496E-15  -2.35962850635646E-15
      1.28229290936021E-13
      9.19383057385245E-02
      0.00000000000000E+00   0.00000000000000E+00   0.00000000000000E+00   0.00000000000000E+00  -2.05789297345115E-14
      4.09404437142515E-15  -1.64848853630864E-14  -1.28034781044765E-13  -1.10325966886229E-01  -1.10325966886229E-01
      0.00000000000000E+00   0.00000000000000E+00   2.05789297345115E-14  -4.09404437142515E-15   1.64848853630864E-14
      1.28034781044761E-13
      1.10385880940787E-01
      0.00000000000000E+00   0.00000000000000E+00   0.00000000000000E+00   0.00000000000000E+00   5.49001853002598E-14
      9.70057170998636E-15   6.46007570102461E-14  -1.27822108727467E-13  -1.32463057128944E-01  -1.32463057128944E-01
      0.00000000000000E+00   0.00000000000000E+00  -5.49001853002598E-14  -9.70057170998636E-15  -6.46007570102461E-14
      1.27822108727470E-13
      1.30555229828594E-01
      0.00000000000000E+00   0.00000000000000E+00   0.00000000000000E+00   0.00000000000000E+00   1.22478896826579E-13
      2.48044395088135E-14   1.47283336335393E-13  -1.27589886073555E-13  -1.56666275794312E-01  -1.56666275794312E-01
      0.00000000000000E+00   0.00000000000000E+00  -1.22478896826579E-13  -2.48044395088135E-14  -1.47283336335393E-13
      1.27589886073536E-13
      1.52607051279262E-01
      0.00000000000000E+00   0.00000000000000E+00   0.00000000000000E+00   0.00000000000000E+00   1.94536484747297E-13
      6.90952777366163E-14   2.63631762483913E-13  -1.27336748626709E-13  -1.83128461535115E-01  -1.83128461535115E-01
      0.00000000000000E+00   0.00000000000000E+00  -1.94536484747297E-13  -6.90952777366163E-14  -2.63631762483913E-13
      1.27336748626715E-13
      1.76717042731993E-01
      0.00000000000000E+00   0.00000000000000E+00   0.00000000000000E+00   0.00000000000000E+00   2.25028912736489E-13
      2.11600826407660E-13   4.36629739144148E-13  -1.27061328245325E-13  -2.12060451278392E-01  -2.12060451278392E-01
      0.00000000000000E+00   0.00000000000000E+00  -2.25028912736489E-13  -2.11600826407660E-13  -4.36629739144148E-13
      1.27061328245332E-13
      2.02916566777295E-01
      0.00000000000000E+00   0.00000000000000E+00   0.00000000000000E+00   0.00000000000000E+00   7.92511265029336E-13
      7.13774973434608E-13   1.50628623846394E-12  -1.26763923727608E-13  -2.43499880132754E-01  -2.43499880132754E-01
      0.00000000000000E+00   0.00000000000000E+00  -7.92511265029336E-13  -7.13774973434608E-13  -1.50628623846394E-12
      1.26763923727596E-13
      2.31386716239855E-01
      0.00000000000000E+00   0.00000000000000E+00   0.00000000000000E+00   0.00000000000000E+00   2.96923503108382E-12
      2.67491143823366E-12   5.64414646931748E-12  -1.26442750379528E-13  -2.77664059487826E-01  -2.77664059487826E-01
      0.00000000000000E+00   0.00000000000000E+00  -2.96923503108382E-12  -2.67491143823366E-12  -5.64414646931748E-12
      1.26442750379535E-13
      2.62324278655838E-01
      0.00000000000000E+00   0.00000000000000E+00   0.00000000000000E+00   0.00000000000000E+00   1.24748702507290E-11
      1.12396389631717E-11   2.37145092139007E-11  -1.26094688949753E-13  -3.14789134387005E-01  -3.14789134387005E-01
      0.00000000000000E+00   0.00000000000000E+00  -1.24748702507290E-11  -1.12396389631717E-11  -2.37145092139007E-11
      1.26094688949749E-13
      2.95943096481206E-01
      0.00000000000000E+00   0.00000000000000E+00   0.00000000000000E+00   0.00000000000000E+00   5.93752087338531E-11
      5.34802185726828E-11   1.12855427306536E-10  -1.25714070631740E-13  -3.55131715777447E-01  -3.55131715777447E-01
      0.00000000000000E+00   0.00000000000000E+00  -5.93752087338531E-11  -5.34802185726828E-11  -1.12855427306536E-10
      1.25714070631740E-13
      3.32475545184772E-01
      0.00000000000000E+00   0.00000000000000E+00   0.00000000000000E+00   0.00000000000000E+00   3.23489163721138E-10
      2.91240008531809E-10   6.14729172252948E-10  -1.25292105710881E-13  -3.98970654221726E-01  -3.98970654221726E-01
      0.00000000000000E+00   0.00000000000000E+00  -3.23489163721138E-10  -2.91240008531809E-10  -6.14729172252948E-10
      1.25292105710884E-13
      3.72174139442647E-01
      0.00000000000000E+00   0.00000000000000E+00   0.00000000000000E+00   0.00000000000000E+00   2.03992829908632E-09
      1.83499486999622E-09   3.87492316908253E-09  -1.24819642346345E-13  -4.46608967331177E-01  -4.46608967331177E-01
      0.00000000000000E+00   0.00000000000000E+00  -2.03992829908632E-09  -1.83499486999622E-09  -3.87492316908253E-09
      1.24819642346342E-13
      4.15313278536205E-01
      0.00000000000000E+00   0.00000000000000E+00   0.00000000000000E+00   0.00000000000000E+00   1.50123197721039E-08
      1.34596192218336E-08   2.84719389939374E-08  -1.24293794623877E-13  -4.98375934243446E-01  -4.98375934243446E-01
      0.00000000000000E+00   0.00000000000000E+00  -1.50123197721039E-08  -1.34596192218336E-08  -2.84719389939374E-08
      1.24293794623866E-13
      4.62191143017871E-01
      0.00000000000000E+00   0.00000000000000E+00   0.00000000000000E+00   0.00000000000000E+00   1.25828543390156E-07
      1.10369326664411E-07   2.36197870054567E-07  -1.23726994404786E-13  -5.54629371621446E-01  -5.54629371621446E-01
      0.00000000000000E+00   0.00000000000000E+00  -1.25828543390156E-07  -1.10369326664411E-07  -2.36197870054567E-07
      1.23726994404775E-13
      5.13131755754615E-01
      0.00000000000000E+00   0.00000000000000E+00   0.00000000000000E+00   0.00000000000000E+00   9.71489297950331E-07
      7.61641100273228E-07   1.73313039822356E-06  -1.23171833972599E-13  -6.15758106905538E-01  -6.15758106905538E-01
      0.00000000000000E+00   0.00000000000000E+00  -9.71489297950331E-07  -7.61641100273228E-07  -1.73313039822356E-06
      1.23171833972601E-13
      5.68147617510299E-01
      0.00000000000000E+00   0.00000000000000E+00   0.00000000000000E+00   0.00000000000000E+00   4.70748476376563E-06
      3.01369273521211E-06   7.72117749897774E-06  -1.22682205859257E-13  -6.81777141012358E-01  -6.81777141012358E-01
      0.00000000000000E+00   0.00000000000000E+00  -4.70748476376563E-06  -3.01369273521211E-06  -7.72117749897774E-06
      1.22682205859258E-13
      6.27564748206437E-01
      0.00000000000000E+00   0.00000000000000E+00   0.00000000000000E+00   0.00000000000000E+00   1.42717304678399E-05
      7.71811423152385E-06   2.19898446993637E-05  -1.22230541734334E-13  -7.53077697847724E-01  -7.53077697847724E-01
      0.00000000000000E+00   0.00000000000000E+00  -1.42717304678399E-05  -7.71811423152385E-06  -2.19898446993637E-05
      1.22230541734334E-13
      6.91735249358266E-01
      0.00000000000000E+00   0.00000000000000E+00   0.00000000000000E+00   0.00000000000000E+00   3.16406211510152E-05
      1.52933513333182E-05   4.69339724843334E-05  -1.21799549306754E-13  -8.30082299229919E-01  -8.30082299229919E-01
      0.00000000000000E+00   0.00000000000000E+00  -3.16406211510152E-05  -1.52933513333182E-05  -4.69339724843334E-05
      1.21799549306756E-13
      7.61039390602242E-01
      0.00000000000000E+00   0.00000000000000E+00   0.00000000000000E+00   0.00000000000000E+00   5.70130510276463E-05
      2.55953007347854E-05   8.26083517624317E-05  -1.21394002671538E-13  -9.13247268722690E-01  -9.13247268722690E-01
      0.00000000000000E+00   0.00000000000000E+00  -5.70130510276463E-05  -2.55953007347854E-05  -8.26083517624317E-05
      1.21394002671540E-13
      8.36349890754028E-01
      0.00000000000000E+00   0.00000000000000E+00   0.00000000000000E+00   0.00000000000000E+00   8.94513280756743E-05
      3.81684946057419E-05   1.27619822681416E-04  -1.21017280223454E-13  -1.00361986890483E+00  -1.00361986890483E+00
      0.00000000000000E+00   0.00000000000000E+00  -8.94513280756743E-05  -3.81684946057419E-05  -1.27619822681416E-04
      1.21017280223453E-13
      9.18187300918970E-01
      0.00000000000000E+00   0.00000000000000E+00   0.00000000000000E+00   0.00000000000000E+00   1.27873507145391E-04
      5.25832254786492E-05   1.80456732624040E-04  -1.20667453454170E-13  -1.10182476110276E+00  -1.10182476110276E+00
      0.00000000000000E+00   0.00000000000000E+00  -1.27873507145391E-04  -5.25832254786492E-05  -1.80456732624040E-04
      1.20667453454170E-13
      1.00000000000000E+00
      0.00000000000000E+00   0.00000000000000E+00   0.00000000000000E+00   0.00000000000000E+00   1.68305079650474E-04
      6.73979972631786E-05   2.35703076913652E-04  -1.20362290806129E-13  -1.20000000000000E+00  -1.20000000000000E+00
      0.00000000000000E+00   0.00000000000000E+00  -1.68305079650474E-04  -6.73979972631786E-05  -2.35703076913652E-04
      1.20362290806127E-13
}
