DF-ISE text

Info {
  version   = 1.0
  type      = xyplot
  datasets  = [
    "time"
    "baze OuterVoltage" "baze InnerVoltage" "baze QuasiFermiPotential" "baze DisplacementCurrent" "baze eCurrent"
    "baze hCurrent" "baze TotalCurrent" "baze Charge" "koll_c0 OuterVoltage" "koll_c0 InnerVoltage"
    "koll_c0 QuasiFermiPotential" "koll_c0 DisplacementCurrent" "koll_c0 eCurrent" "koll_c0 hCurrent" "koll_c0 TotalCurrent"
    "koll_c0 Charge" "emit OuterVoltage" "emit InnerVoltage" "emit QuasiFermiPotential" "emit DisplacementCurrent"
    "emit eCurrent" "emit hCurrent" "emit TotalCurrent" "emit Charge" ]
  functions = [
    Time
    OuterVoltage InnerVoltage QuasiFermiPotential DisplacementCurrent eCurrent
    hCurrent TotalCurrent Charge OuterVoltage InnerVoltage
    QuasiFermiPotential DisplacementCurrent eCurrent hCurrent TotalCurrent
    Charge OuterVoltage InnerVoltage QuasiFermiPotential DisplacementCurrent
    eCurrent hCurrent TotalCurrent Charge ]
}

Data {
      0.00000000000000E+00
      0.00000000000000E+00   0.00000000000000E+00   0.00000000000000E+00   0.00000000000000E+00   1.03567918102409E-23
     -1.82040065910567E-21  -1.81004386729543E-21  -6.06289444526481E-13   0.00000000000000E+00   0.00000000000000E+00
      0.00000000000000E+00   0.00000000000000E+00  -1.03568012983314E-23   1.82040089998877E-21   1.81004409869044E-21
      5.07565828987164E-13   0.00000000000000E+00   0.00000000000000E+00   0.00000000000000E+00   0.00000000000000E+00
      2.69597017855223E-30  -2.74605962534141E-28  -2.71909992355589E-28   1.19882219900828E-13
      0.00000000000000E+00
      4.32855061985353E-12   4.32855061985353E-12   0.00000000000000E+00   0.00000000000000E+00  -2.12815070664782E-25
     -2.04180906210799E-24  -2.25462413277277E-24  -6.06289444290086E-13   0.00000000000000E+00   0.00000000000000E+00
      0.00000000000000E+00   0.00000000000000E+00   2.12795518280206E-25   2.04898016381791E-24   2.26177568209811E-24
      5.07565828751301E-13   0.00000000000000E+00   0.00000000000000E+00   0.00000000000000E+00   0.00000000000000E+00
      2.01093143585504E-29  -7.83566324502646E-28  -7.63457010144096E-28   1.19882219900217E-13
      1.00000000000000E-02
      5.00000000428526E-03   5.00000000428526E-03   0.00000000000000E+00   0.00000000000000E+00   2.68762009477273E-17
      1.16856092694657E-17   3.85618102171931E-17  -6.02975145045554E-13   0.00000000000000E+00   0.00000000000000E+00
      0.00000000000000E+00   0.00000000000000E+00  -2.68587787314548E-17  -1.05880312685732E-17  -3.74468100000280E-17
      5.04831841034818E-13   0.00000000000000E+00   0.00000000000000E+00   0.00000000000000E+00   0.00000000000000E+00
     -1.74272469028905E-20  -1.09730703127961E-18  -1.11473427818251E-18   1.19176724668693E-13
      2.30333333333333E-02
      1.15166666708955E-02   1.15166666708955E-02   0.00000000000000E+00   0.00000000000000E+00   7.06541838804421E-17
      3.07283312764722E-17   1.01382515156914E-16  -5.98643185784231E-13   0.00000000000000E+00   0.00000000000000E+00
      0.00000000000000E+00   0.00000000000000E+00  -7.06083792022798E-17  -2.78469177788443E-17  -9.84552969811241E-17
      5.01254164174539E-13   0.00000000000000E+00   0.00000000000000E+00   0.00000000000000E+00   0.00000000000000E+00
     -4.58069636117514E-20  -2.88121166332509E-18  -2.92701862693684E-18   1.18257221041926E-13
      4.03242222222222E-02
      2.01621111152651E-02   2.01621111152651E-02   0.00000000000000E+00   0.00000000000000E+00   1.48594573172120E-16
      6.46522033435763E-17   2.13246776515697E-16  -5.92874392513806E-13   0.00000000000000E+00   0.00000000000000E+00
      0.00000000000000E+00   0.00000000000000E+00  -1.48498261048256E-16  -5.86020638888718E-17  -2.07100324937127E-16
      4.96483205917056E-13   0.00000000000000E+00   0.00000000000000E+00   0.00000000000000E+00   0.00000000000000E+00
     -9.63162672710726E-20  -6.05009042461245E-18  -6.14640669188352E-18   1.17037331991140E-13
      6.32634681481481E-02
      3.16317340781288E-02   3.16317340781288E-02   0.00000000000000E+00   0.00000000000000E+00   3.01505290908026E-16
      1.31255887459047E-16   4.32761178367073E-16  -5.85182387367033E-13   0.00000000000000E+00   0.00000000000000E+00
      0.00000000000000E+00   0.00000000000000E+00  -3.01309928771264E-16  -1.19005081714331E-16  -4.20315010485595E-16
      4.90111337113771E-13   0.00000000000000E+00   0.00000000000000E+00   0.00000000000000E+00   0.00000000000000E+00
     -1.95367201150795E-19  -1.22507724805164E-17  -1.24461396816672E-17   1.15418920879445E-13
      9.36962010765432E-02
      4.68481005421946E-02   4.68481005421946E-02   0.00000000000000E+00   0.00000000000000E+00   6.43025000627653E-16
      2.80122337698868E-16   9.23147338326521E-16  -5.74908229876006E-13   0.00000000000000E+00   0.00000000000000E+00
      0.00000000000000E+00   0.00000000000000E+00  -6.42608542535297E-16  -2.54067394514898E-16  -8.96675937050195E-16
      4.81584356905568E-13   0.00000000000000E+00   0.00000000000000E+00   0.00000000000000E+00   0.00000000000000E+00
     -4.16471813027176E-19  -2.60552165061417E-17  -2.64716883191689E-17   1.13271785065089E-13
      1.34070293428214E-01
      6.70351467178552E-02   6.70351467178552E-02   0.00000000000000E+00   0.00000000000000E+00   1.55022991575282E-15
      6.75826040985683E-16   2.22605595673850E-15  -5.61152413430748E-13   0.00000000000000E+00   0.00000000000000E+00
      0.00000000000000E+00   0.00000000000000E+00  -1.54922654204428E-15  -6.13258475691011E-16  -2.16248501773529E-15
      4.70142306869480E-13   0.00000000000000E+00   0.00000000000000E+00   0.00000000000000E+00   0.00000000000000E+00
     -1.00337769803338E-18  -6.25676852304450E-17  -6.35710629284784E-17   1.10423175055155E-13
      1.87633255948097E-01
      9.38166279775650E-02   9.38166279775650E-02   0.00000000000000E+00   0.00000000000000E+00   4.59046367623199E-15
      2.00321951978891E-15   6.59368319602090E-15  -5.42673464220048E-13   0.00000000000000E+00   0.00000000000000E+00
      0.00000000000000E+00   0.00000000000000E+00  -4.58749581753290E-15  -1.81905265280996E-15  -6.40654847034286E-15
      4.54729604004260E-13   0.00000000000000E+00   0.00000000000000E+00   0.00000000000000E+00   0.00000000000000E+00
     -2.96786305694148E-18  -1.84166965430121E-16  -1.87134828487063E-16   1.06643885596379E-13
      2.58693452891142E-01
      1.29346726448780E-01   1.29346726448780E-01   0.00000000000000E+00   0.00000000000000E+00   1.85067183966611E-14
      8.10679191920322E-15   2.66135103158643E-14  -5.17728554486849E-13   0.00000000000000E+00   0.00000000000000E+00
      0.00000000000000E+00   0.00000000000000E+00  -1.84947792548428E-14  -7.37121384661673E-15  -2.58659931014596E-14
      4.33850577138116E-13   0.00000000000000E+00   0.00000000000000E+00   0.00000000000000E+00   0.00000000000000E+00
     -1.19391434032556E-17  -7.35578096080814E-16  -7.47517239484069E-16   1.01629795845597E-13
      3.52966647502249E-01
      1.76483323753925E-01   1.76483323753925E-01   0.00000000000000E+00   0.00000000000000E+00   1.15167048637271E-13
      5.00724211330993E-14   1.65239469770370E-13  -4.83800317760968E-13   0.00000000000000E+00   0.00000000000000E+00
      0.00000000000000E+00   0.00000000000000E+00  -1.15092937111322E-13  -4.55520512904733E-14  -1.60644988401796E-13
      4.05315778928226E-13   0.00000000000000E+00   0.00000000000000E+00   0.00000000000000E+00   0.00000000000000E+00
     -7.41115259495778E-17  -4.52036984262145E-15  -4.59448136857103E-15   9.49773669867827E-14
      4.75836044478724E-01
      2.37918022241631E-01   2.37918022241631E-01   0.00000000000000E+00   0.00000000000000E+00   1.24093250008841E-12
      5.38332939209035E-13   1.77926543929744E-12  -4.37904355708616E-13   0.00000000000000E+00   0.00000000000000E+00
      0.00000000000000E+00   0.00000000000000E+00  -1.24013751658192E-12  -4.90491662779454E-13  -1.73062917936137E-12
      3.66449633768858E-13   0.00000000000000E+00   0.00000000000000E+00   0.00000000000000E+00   0.00000000000000E+00
     -7.94983506490667E-16  -4.78412764297493E-14  -4.86362599362400E-14   8.63063576482783E-14
      6.35975825204731E-01
      3.17987912603941E-01   3.17987912603941E-01   0.00000000000000E+00   0.00000000000000E+00   2.74685887768024E-11
      1.18785997894032E-11   3.93471885662056E-11  -3.74440348285639E-13   0.00000000000000E+00   0.00000000000000E+00
      0.00000000000000E+00   0.00000000000000E+00  -2.74511107490830E-11  -1.08456279898121E-11  -3.82967387388951E-11
      3.12148892874541E-13   0.00000000000000E+00   0.00000000000000E+00   0.00000000000000E+00   0.00000000000000E+00
     -1.74780277513504E-14  -1.03297179987414E-12  -1.05044982762549E-12   7.50040200630542E-14
      8.35975825204731E-01
      4.17987912603075E-01   4.17987912603075E-01   0.00000000000000E+00   0.00000000000000E+00   1.31416394479060E-09
      5.65714098470041E-10   1.87987804326065E-09  -2.86777570292747E-13   0.00000000000000E+00   0.00000000000000E+00
      0.00000000000000E+00   0.00000000000000E+00  -1.31332315699151E-09  -5.17927813614807E-10  -1.83125097060632E-09
      2.35931979057558E-13   0.00000000000000E+00   0.00000000000000E+00   0.00000000000000E+00   0.00000000000000E+00
     -8.40787974827668E-13  -4.77862864378438E-11  -4.86270744126714E-11   6.08867081405876E-14
      1.00000000000000E+00
      5.00000000000000E-01   5.00000000000000E-01   0.00000000000000E+00   0.00000000000000E+00   3.13231094306369E-08
      1.34267383969184E-08   4.47498478275554E-08  -2.04320215332498E-13   0.00000000000000E+00   0.00000000000000E+00
      0.00000000000000E+00   0.00000000000000E+00  -3.12953800193722E-08  -1.23204335139132E-08  -4.36158135332853E-08
      1.62863955455118E-13   0.00000000000000E+00   0.00000000000000E+00   0.00000000000000E+00   0.00000000000000E+00
     -2.77294135319328E-11  -1.10630490402943E-09  -1.13403431756136E-09   4.93075897197924E-14
      1.00000000000000E-03
      5.00000000000000E-01   5.00000000000000E-01   0.00000000000000E+00   0.00000000000000E+00   2.04845296119645E-08
      9.16233491083799E-09   2.96468645228025E-08  -2.14478362341392E-13   1.10000000000000E-02   1.10000000000000E-02
      0.00000000000000E+00   0.00000000000000E+00  -1.81014338012661E-08  -8.05601666964031E-09  -2.61574504709064E-08
      1.73315511941821E-13   0.00000000000000E+00   0.00000000000000E+00   0.00000000000000E+00   0.00000000000000E+00
     -2.38309581070393E-09  -1.10631824124932E-09  -3.48941405195324E-09   4.93075453800764E-14
      2.28000000000000E-03
      5.00000000000000E-01   5.00000000000000E-01   0.00000000000000E+00   0.00000000000000E+00   1.18949542413724E-08
      5.78244891287279E-09   1.76774031542452E-08  -2.27190087701086E-13   2.50800000000000E-02   2.50800000000000E-02
      0.00000000000000E+00   0.00000000000000E+00  -7.65191963031698E-09  -4.67612008160435E-09  -1.23280397119213E-08
      1.86403021818216E-13   0.00000000000000E+00   0.00000000000000E+00   0.00000000000000E+00   0.00000000000000E+00
     -4.24303461105542E-09  -1.10632883126859E-09  -5.34936344232401E-09   4.93075101736607E-14
      3.97813333333333E-03
      5.00000000000000E-01   5.00000000000000E-01   0.00000000000000E+00   0.00000000000000E+00   5.78687315847927E-09
      3.37832741965753E-09   9.16520057813680E-09  -2.43531123631120E-13   4.37594666666667E-02   4.37594666666667E-02
      0.00000000000000E+00   0.00000000000000E+00  -2.29906416033115E-10  -2.27199104251298E-09  -2.50189745854609E-09
      2.03242819771976E-13   0.00000000000000E+00   0.00000000000000E+00   0.00000000000000E+00   0.00000000000000E+00
     -5.55696674244615E-09  -1.10633637714450E-09  -6.66330311959065E-09   4.93074850873797E-14
      6.23099022222222E-03
      5.00000000000000E-01   5.00000000000000E-01   0.00000000000000E+00   0.00000000000000E+00   2.23131519190826E-09
      1.97818343835098E-09   4.20949863025924E-09  -2.64306091527403E-13   6.85408924444444E-02   6.85408924444444E-02
      0.00000000000000E+00   0.00000000000000E+00   4.08070594939122E-09  -8.71842659470125E-10   3.20886328992109E-09
      2.24679669944555E-13   0.00000000000000E+00   0.00000000000000E+00   0.00000000000000E+00   0.00000000000000E+00
     -6.31202114129947E-09  -1.10634077888086E-09  -7.41836192018033E-09   4.93074704535312E-14
      9.16721370074074E-03
      5.00000000000000E-01   5.00000000000000E-01   0.00000000000000E+00   0.00000000000000E+00   6.53675395141665E-10
      1.35650080243451E-09   2.01017619757617E-09  -2.89961514449220E-13   1.00839350708148E-01   1.00839350708148E-01
      0.00000000000000E+00   0.00000000000000E+00   5.98416539458400E-09  -2.50158066655677E-10   5.73400732792833E-09
      2.51197876276043E-13   0.00000000000000E+00   0.00000000000000E+00   0.00000000000000E+00   0.00000000000000E+00
     -6.63784078972567E-09  -1.10634273577885E-09  -7.74418352550453E-09   4.93074639474411E-14
      1.29940916344099E-02
      5.00000000000000E-01   5.00000000000000E-01   0.00000000000000E+00   0.00000000000000E+00   1.44042899531640E-10
      1.15548328952351E-09   1.29952618905515E-09  -3.21334316192692E-13   1.42935007978509E-01   1.42935007978509E-01
      0.00000000000000E+00   0.00000000000000E+00   6.59223710775519E-09  -4.91399212381487E-11   6.54309718651704E-09
      2.83695240645342E-13   0.00000000000000E+00   0.00000000000000E+00   0.00000000000000E+00   0.00000000000000E+00
     -6.73628000728683E-09  -1.10634336828537E-09  -7.84262337557221E-09   4.93074618444230E-14
      1.79817892079587E-02
      5.00000000000000E-01   5.00000000000000E-01   0.00000000000000E+00   0.00000000000000E+00   3.45778373354464E-11
      1.11223429422625E-09   1.14681213156169E-09  -3.59410838251617E-13   1.97799681287545E-01   1.97799681287545E-01
      0.00000000000000E+00   0.00000000000000E+00   6.71945485855568E-09  -5.89079143868811E-12   6.71356406711699E-09
      3.23237470310384E-13   0.00000000000000E+00   0.00000000000000E+00   0.00000000000000E+00   0.00000000000000E+00
     -6.75403269589113E-09  -1.10634350278756E-09  -7.86037619867869E-09   4.93074613972925E-14
      2.44824217121506E-02
      5.00000000000000E-01   5.00000000000000E-01   0.00000000000000E+00   0.00000000000000E+00   2.06620086829520E-11
      1.10671446902069E-09   1.12737647770365E-09  -4.05388706319274E-13   2.69306638833656E-01   2.69306638833656E-01
      0.00000000000000E+00   0.00000000000000E+00   6.73520434484163E-09  -3.70951420046953E-13   6.73483339342159E-09
      3.71125649682920E-13   0.00000000000000E+00   0.00000000000000E+00   0.00000000000000E+00   0.00000000000000E+00
     -6.75586635352458E-09  -1.10634351760065E-09  -7.86220987112523E-09   4.93074613483096E-14
      3.29549127426140E-02
      5.00000000000000E-01   5.00000000000000E-01   0.00000000000000E+00   0.00000000000000E+00   1.97523893363050E-11
      1.10635356582160E-09   1.12610595515790E-09  -4.60756437499789E-13   3.62504040168754E-01   3.62504040168754E-01
      0.00000000000000E+00   0.00000000000000E+00   6.73731237913923E-09  -1.00502764253976E-14   6.73730232886281E-09
      4.28982937597852E-13   0.00000000000000E+00   0.00000000000000E+00   0.00000000000000E+00   0.00000000000000E+00
     -6.75706476847552E-09  -1.10634351554517E-09  -7.86340828402070E-09   4.93074613555585E-14
      4.37997012616072E-02
      5.00000000000000E-01   5.00000000000000E-01   0.00000000000000E+00   0.00000000000000E+00   1.97118078608709E-11
      1.10634356251776E-09   1.12605537037863E-09  -5.26172610806589E-13   4.81796713877680E-01   4.81796713877680E-01
      0.00000000000000E+00   0.00000000000000E+00   6.73880498405709E-09  -5.07100457237126E-17   6.73880493334705E-09
      4.97561619077805E-13   0.00000000000000E+00   0.00000000000000E+00   0.00000000000000E+00   0.00000000000000E+00
     -6.75851679191796E-09  -1.10634351180772E-09  -7.86486030372568E-09   4.93074613684801E-14
      5.07403659137629E-02
      5.00000000000000E-01   5.00000000000000E-01   0.00000000000000E+00   0.00000000000000E+00   1.97018194848346E-11
      1.10634346515351E-09   1.12604528463835E-09  -5.65463292057375E-13   5.58144025051392E-01   5.58144025051392E-01
      0.00000000000000E+00   0.00000000000000E+00   6.73968981586258E-09   4.43981365189466E-17   6.73968986026071E-09
      5.38550768564459E-13   0.00000000000000E+00   0.00000000000000E+00   0.00000000000000E+00   0.00000000000000E+00
     -6.75939163534741E-09  -1.10634350955183E-09  -7.86573514489924E-09   4.93074613762789E-14
      5.96244166685221E-02
      5.00000000000000E-01   5.00000000000000E-01   0.00000000000000E+00   0.00000000000000E+00   1.96899408798323E-11
      1.10634345731454E-09   1.12603339819438E-09  -6.13216099956382E-13   6.55868583353744E-01   6.55868583353744E-01
      0.00000000000000E+00   0.00000000000000E+00   6.74077987813336E-09   4.95110475222804E-17   6.74077992764440E-09
      5.86895421690741E-13   0.00000000000000E+00   0.00000000000000E+00   0.00000000000000E+00   0.00000000000000E+00
     -6.76046981901355E-09  -1.10634350681703E-09  -7.86681332583058E-09   4.93074613857318E-14
      7.01668235641698E-02
      5.00000000000000E-01   5.00000000000000E-01   0.00000000000000E+00   0.00000000000000E+00   1.96765901090455E-11
      1.10634345411711E-09   1.12602004422616E-09  -6.66741770530801E-13   7.71835059205868E-01   7.71835059205868E-01
      0.00000000000000E+00   0.00000000000000E+00   6.74201340074429E-09   4.96384199655801E-17   6.74201345038271E-09
      6.40442584315860E-13   0.00000000000000E+00   0.00000000000000E+00   0.00000000000000E+00   0.00000000000000E+00
     -6.76168999085342E-09  -1.10634350376222E-09  -7.86803349461564E-09   4.93074613962959E-14
      8.31691254021352E-02
      5.00000000000000E-01   5.00000000000000E-01   0.00000000000000E+00   0.00000000000000E+00   1.96610519518170E-11
      1.10634345053178E-09   1.12600450248359E-09  -7.29245260769436E-13   9.14860379423487E-01   9.14860379423487E-01
      0.00000000000000E+00   0.00000000000000E+00   6.74345376353591E-09   4.96601431189550E-17   6.74345381319605E-09
      7.02946828005743E-13   0.00000000000000E+00   0.00000000000000E+00   0.00000000000000E+00   0.00000000000000E+00
     -6.76311481548786E-09  -1.10634350020222E-09  -7.86945831569008E-09   4.93074614086043E-14
      9.98120717547309E-02
      5.00000000000000E-01   5.00000000000000E-01   0.00000000000000E+00   0.00000000000000E+00   1.96422083150080E-11
      1.10634344617040E-09   1.12598565448541E-09  -8.05455621874367E-13   1.09793278930204E+00   1.09793278930204E+00
      0.00000000000000E+00   0.00000000000000E+00   6.74520803150777E-09   4.96901206160076E-17   6.74520808119789E-09
      7.79158254252624E-13   0.00000000000000E+00   0.00000000000000E+00   0.00000000000000E+00   0.00000000000000E+00
     -6.76485023982272E-09  -1.10634349586399E-09  -7.87119373568670E-09   4.93074614236029E-14
      1.21115043086053E-01
      5.00000000000000E-01   5.00000000000000E-01   0.00000000000000E+00   0.00000000000000E+00   1.96190848544339E-11
      1.10634344085165E-09   1.12596252570608E-09  -8.98296827011697E-13   1.33226547394659E+00   1.33226547394659E+00
      0.00000000000000E+00   0.00000000000000E+00   6.74737262419899E-09   4.97256287045600E-17   6.74737267392462E-09
      8.72000642067571E-13   0.00000000000000E+00   0.00000000000000E+00   0.00000000000000E+00   0.00000000000000E+00
     -6.76699170905342E-09  -1.10634349057815E-09  -7.87333519963157E-09   4.93074614418791E-14
      1.48382846390146E-01
      5.00000000000000E-01   5.00000000000000E-01   0.00000000000000E+00   0.00000000000000E+00   1.95911467580212E-11
      1.10634343447182E-09   1.12593458122984E-09  -1.00969298082195E-12   1.63221131029161E+00   1.63221131029161E+00
      0.00000000000000E+00   0.00000000000000E+00   6.75006585117552E-09   4.97682670872863E-17   6.75006590094379E-09
      9.83397956333317E-13   0.00000000000000E+00   0.00000000000000E+00   0.00000000000000E+00   0.00000000000000E+00
     -6.76965699793370E-09  -1.10634348424837E-09  -7.87600048218208E-09   4.93074614637689E-14
      1.83285634619385E-01
      5.00000000000000E-01   5.00000000000000E-01   0.00000000000000E+00   0.00000000000000E+00   1.95549922938486E-11
      1.10634342695553E-09   1.12589841924938E-09  -1.14179072873471E-12   2.01614198081324E+00   2.01614198081324E+00
      0.00000000000000E+00   0.00000000000000E+00   6.75344051454196E-09   4.98223861079642E-17   6.75344056436435E-09
      1.11549747491810E-12   0.00000000000000E+00   0.00000000000000E+00   0.00000000000000E+00   0.00000000000000E+00
     -6.77299550683583E-09  -1.10634347678009E-09  -7.87933898361592E-09   4.93074614896046E-14
      2.27961203552811E-01
      5.00000000000000E-01   5.00000000000000E-01   0.00000000000000E+00   0.00000000000000E+00   1.95133882046632E-11
      1.10634341817880E-09   1.12585680638346E-09  -1.29714529191430E-12   2.50757323908092E+00   2.50757323908092E+00
      0.00000000000000E+00   0.00000000000000E+00   6.75743078482806E-09   4.98857521172504E-17   6.75743083471382E-09
      1.27085398551239E-12   0.00000000000000E+00   0.00000000000000E+00   0.00000000000000E+00   0.00000000000000E+00
     -6.77694417303273E-09  -1.10634346806557E-09  -7.88328764109830E-09   4.93074615197561E-14
      2.77961203552811E-01
      5.00000000000000E-01   5.00000000000000E-01   0.00000000000000E+00   0.00000000000000E+00   1.94726509543696E-11
      1.10634340907967E-09   1.12581606003404E-09  -1.45877345401541E-12   3.05757323908092E+00   3.05757323908092E+00
      0.00000000000000E+00   0.00000000000000E+00   6.76137625438304E-09   4.99503908069890E-17   6.76137630433343E-09
      1.43248422556847E-12   0.00000000000000E+00   0.00000000000000E+00   0.00000000000000E+00   0.00000000000000E+00
     -6.78084890533753E-09  -1.10634345902781E-09  -7.88719236436534E-09   4.93074615510177E-14
      3.27961203552811E-01
      5.00000000000000E-01   5.00000000000000E-01   0.00000000000000E+00   0.00000000000000E+00   1.94340723059481E-11
      1.10634340038021E-09   1.12577747268616E-09  -1.61320044122019E-12   3.60757323908092E+00   3.60757323908092E+00
      0.00000000000000E+00   0.00000000000000E+00   6.76514192083316E-09   5.00106945294310E-17   6.76514197084386E-09
      1.58691296783287E-12   0.00000000000000E+00   0.00000000000000E+00   0.00000000000000E+00   0.00000000000000E+00
     -6.78457599313910E-09  -1.10634345039123E-09  -7.89091944353034E-09   4.93074615808911E-14
      3.77961203552811E-01
      5.00000000000000E-01   5.00000000000000E-01   0.00000000000000E+00   0.00000000000000E+00   1.93960566940848E-11
      1.10634339212911E-09   1.12573944882319E-09  -1.75983475526356E-12   4.15757323908092E+00   4.15757323908092E+00
      0.00000000000000E+00   0.00000000000000E+00   6.76888586616832E-09   5.00677796274095E-17   6.76888591623610E-09
      1.73354905997150E-12   0.00000000000000E+00   0.00000000000000E+00   0.00000000000000E+00   0.00000000000000E+00
     -6.78828192286239E-09  -1.10634344219681E-09  -7.89462536505920E-09   4.93074616092452E-14
      4.27961203552811E-01
      5.00000000000000E-01   5.00000000000000E-01   0.00000000000000E+00   0.00000000000000E+00   1.93571171143538E-11
      1.10634338425827E-09   1.12570050137262E-09  -1.89999765387814E-12   4.70757323908092E+00   4.70757323908092E+00
      0.00000000000000E+00   0.00000000000000E+00   6.77273478611112E-09   5.01213178908687E-17   6.77273483623243E-09
      1.87371360867382E-12   0.00000000000000E+00   0.00000000000000E+00   0.00000000000000E+00   0.00000000000000E+00
     -6.79209190322540E-09  -1.10634343437923E-09  -7.89843533760463E-09   4.93074616363040E-14
      4.77961203552811E-01
      5.00000000000000E-01   5.00000000000000E-01   0.00000000000000E+00   0.00000000000000E+00   1.93178362045479E-11
      1.10634337681195E-09   1.12566121301650E-09  -2.03332538984907E-12   5.25757323908092E+00   5.25757323908092E+00
      0.00000000000000E+00   0.00000000000000E+00   6.77665535621424E-09   5.01731915529392E-17   6.77665540638743E-09
      2.00704292265654E-12   0.00000000000000E+00   0.00000000000000E+00   0.00000000000000E+00   0.00000000000000E+00
     -6.79597319241878E-09  -1.10634342698510E-09  -7.90231661940388E-09   4.93074616619084E-14
      5.27961203552811E-01
      5.00000000000000E-01   5.00000000000000E-01   0.00000000000000E+00   0.00000000000000E+00   1.92813467381780E-11
      1.10634336983373E-09   1.12562471657190E-09  -2.15928791321617E-12   5.80757323908092E+00   5.80757323908092E+00
      0.00000000000000E+00   0.00000000000000E+00   6.78032547976928E-09   5.02240316720653E-17   6.78032552999332E-09
      2.13300697045684E-12   0.00000000000000E+00   0.00000000000000E+00   0.00000000000000E+00   0.00000000000000E+00
     -6.79960682650745E-09  -1.10634342005770E-09  -7.90595024656516E-09   4.93074616858997E-14
      5.77961203552811E-01
      5.00000000000000E-01   5.00000000000000E-01   0.00000000000000E+00   0.00000000000000E+00   1.92490182696235E-11
      1.10634336311433E-09   1.12559238138396E-09  -2.28100996740840E-12   6.35757323908092E+00   6.35757323908092E+00
      0.00000000000000E+00   0.00000000000000E+00   6.78359945675215E-09   5.02744185422322E-17   6.78359950702657E-09
      2.25473048896827E-12   0.00000000000000E+00   0.00000000000000E+00   0.00000000000000E+00   0.00000000000000E+00
     -6.80284847502180E-09  -1.10634341338858E-09  -7.90919188841038E-09   4.93074617089851E-14
      6.27961203552811E-01
      5.00000000000000E-01   5.00000000000000E-01   0.00000000000000E+00   0.00000000000000E+00   1.92193871992016E-11
      1.10634335655413E-09   1.12556274375334E-09  -2.39981386593582E-12   6.90757323908092E+00   6.90757323908092E+00
      0.00000000000000E+00   0.00000000000000E+00   6.78661683236585E-09   5.03259044463337E-17   6.78661688269176E-09
      2.37353584651108E-12   0.00000000000000E+00   0.00000000000000E+00   0.00000000000000E+00   0.00000000000000E+00
     -6.80583621956504E-09  -1.10634340687999E-09  -7.91217962644503E-09   4.93074617315059E-14
      6.77961203552811E-01
      5.00000000000000E-01   5.00000000000000E-01   0.00000000000000E+00   0.00000000000000E+00   1.91912092685819E-11
      1.10634335017106E-09   1.12553455943964E-09  -2.51529054327576E-12   7.45757323908092E+00   7.45757323908092E+00
      0.00000000000000E+00   0.00000000000000E+00   6.78949965219060E-09   5.03806996200992E-17   6.78949970257129E-09
      2.48901400751028E-12   0.00000000000000E+00   0.00000000000000E+00   0.00000000000000E+00   0.00000000000000E+00
     -6.80869086145918E-09  -1.10634340055171E-09  -7.91503426201089E-09   4.93074617534050E-14
      7.27961203552811E-01
      5.00000000000000E-01   5.00000000000000E-01   0.00000000000000E+00   0.00000000000000E+00   1.91635624259203E-11
      1.10634334391841E-09   1.12550690634433E-09  -2.62816522452231E-12   8.00757323908092E+00   8.00757323908092E+00
      0.00000000000000E+00   0.00000000000000E+00   6.79234025578121E-09   5.04410889629453E-17   6.79234030622230E-09
      2.60189018780441E-12   0.00000000000000E+00   0.00000000000000E+00   0.00000000000000E+00   0.00000000000000E+00
     -6.81150381820714E-09  -1.10634339435945E-09  -7.91784721256659E-09   4.93074617748332E-14
      7.77961203552811E-01
      5.00000000000000E-01   5.00000000000000E-01   0.00000000000000E+00   0.00000000000000E+00   1.91358781772207E-11
      1.10634333776408E-09   1.12547921594130E-09  -2.73905728207300E-12   8.55757323908092E+00   8.55757323908092E+00
      0.00000000000000E+00   0.00000000000000E+00   6.79519650222138E-09   5.05022735876345E-17   6.79519655272366E-09
      2.71278373175313E-12   0.00000000000000E+00   0.00000000000000E+00   0.00000000000000E+00   0.00000000000000E+00
     -6.81433238039860E-09  -1.10634338826633E-09  -7.92067576866493E-09   4.93074617959174E-14
      8.27961203552811E-01
      5.00000000000000E-01   5.00000000000000E-01   0.00000000000000E+00   0.00000000000000E+00   1.91080107391723E-11
      1.10634333174732E-09   1.12545134248649E-09  -2.84745563479967E-12   9.10757323908092E+00   9.10757323908092E+00
      0.00000000000000E+00   0.00000000000000E+00   6.79808354290224E-09   5.05582447001246E-17   6.79808359346049E-09
      2.82118352414228E-12   0.00000000000000E+00   0.00000000000000E+00   0.00000000000000E+00   0.00000000000000E+00
     -6.81719155364143E-09  -1.10634338230530E-09  -7.92353493594672E-09   4.93074618165504E-14
      8.77961203552811E-01
      5.00000000000000E-01   5.00000000000000E-01   0.00000000000000E+00   0.00000000000000E+00   1.90797917659757E-11
      1.10634332588429E-09   1.12542311765026E-09  -2.95309438716273E-12   9.65757323908092E+00   9.65757323908092E+00
      0.00000000000000E+00   0.00000000000000E+00   6.80101925722258E-09   5.06093975093891E-17   6.80101930783198E-09
      2.92682362723122E-12   0.00000000000000E+00   0.00000000000000E+00   0.00000000000000E+00   0.00000000000000E+00
     -6.82009904898857E-09  -1.10634337649365E-09  -7.92644242548221E-09   4.93074618366715E-14
      9.27961203552811E-01
      5.00000000000000E-01   5.00000000000000E-01   0.00000000000000E+00   0.00000000000000E+00   1.90507755555011E-11
      1.10634332013940E-09   1.12539409569490E-09  -3.05666014271583E-12   1.02075732390809E+01   1.02075732390809E+01
      0.00000000000000E+00   0.00000000000000E+00   6.80405097689161E-09   5.06570014607870E-17   6.80405102754861E-09
      3.03039066868287E-12   0.00000000000000E+00   0.00000000000000E+00   0.00000000000000E+00   0.00000000000000E+00
     -6.82310175244711E-09  -1.10634337079636E-09  -7.92944512324347E-09   4.93074618564040E-14
      9.77961203552811E-01
      5.00000000000000E-01   5.00000000000000E-01   0.00000000000000E+00   0.00000000000000E+00   1.90206605753963E-11
      1.10634331451126E-09   1.12536397508666E-09  -3.15829039914511E-12   1.07575732390809E+01   1.07575732390809E+01