DF-ISE text

Info {
  version   = 1.0
  type      = xyplot
  datasets  = [
    "time"
    "baze OuterVoltage" "baze InnerVoltage" "baze QuasiFermiPotential" "baze DisplacementCurrent" "baze eCurrent"
    "baze hCurrent" "baze TotalCurrent" "baze Charge" "koll_c0 OuterVoltage" "koll_c0 InnerVoltage"
    "koll_c0 QuasiFermiPotential" "koll_c0 DisplacementCurrent" "koll_c0 eCurrent" "koll_c0 hCurrent" "koll_c0 TotalCurrent"
    "koll_c0 Charge" "emit OuterVoltage" "emit InnerVoltage" "emit QuasiFermiPotential" "emit DisplacementCurrent"
    "emit eCurrent" "emit hCurrent" "emit TotalCurrent" "emit Charge" ]
  functions = [
    Time
    OuterVoltage InnerVoltage QuasiFermiPotential DisplacementCurrent eCurrent
    hCurrent TotalCurrent Charge OuterVoltage InnerVoltage
    QuasiFermiPotential DisplacementCurrent eCurrent hCurrent TotalCurrent
    Charge OuterVoltage InnerVoltage QuasiFermiPotential DisplacementCurrent
    eCurrent hCurrent TotalCurrent Charge ]
}

Data {
      0.00000000000000E+00
      0.00000000000000E+00   0.00000000000000E+00   0.00000000000000E+00   0.00000000000000E+00   1.03567918102409E-23
     -1.82040065910567E-21  -1.81004386729543E-21  -6.06289444526481E-13   0.00000000000000E+00   0.00000000000000E+00
      0.00000000000000E+00   0.00000000000000E+00  -1.03568012983314E-23   1.82040089998877E-21   1.81004409869044E-21
      5.07565828987164E-13   0.00000000000000E+00   0.00000000000000E+00   0.00000000000000E+00   0.00000000000000E+00
      2.69597017855223E-30  -2.74605962534141E-28  -2.71909992355589E-28   1.19882219900828E-13
      0.00000000000000E+00
      4.32855061985353E-12   4.32855061985353E-12   0.00000000000000E+00   0.00000000000000E+00  -2.12815070664782E-25
     -2.04180906210799E-24  -2.25462413277277E-24  -6.06289444290086E-13   0.00000000000000E+00   0.00000000000000E+00
      0.00000000000000E+00   0.00000000000000E+00   2.12795518280206E-25   2.04898016381791E-24   2.26177568209811E-24
      5.07565828751301E-13   0.00000000000000E+00   0.00000000000000E+00   0.00000000000000E+00   0.00000000000000E+00
      2.01093143585504E-29  -7.83566324502646E-28  -7.63457010144096E-28   1.19882219900217E-13
      1.00000000000000E-02
      7.00000000428526E-03   7.00000000428526E-03   0.00000000000000E+00   0.00000000000000E+00   3.91631584886714E-17
      1.70298488736822E-17   5.61930073623536E-17  -6.01647131483046E-13   0.00000000000000E+00   0.00000000000000E+00
      0.00000000000000E+00   0.00000000000000E+00  -3.91377804614818E-17  -1.54307346910726E-17  -5.45685151525544E-17
      5.03735549573666E-13   0.00000000000000E+00   0.00000000000000E+00   0.00000000000000E+00   0.00000000000000E+00
     -2.53931091577180E-20  -1.59835523464206E-18  -1.62374834379978E-18   1.18894525050159E-13
      2.30333333333333E-02
      1.61233333375622E-02   1.61233333375622E-02   0.00000000000000E+00   0.00000000000000E+00   1.08947563997938E-16
      4.73927912007600E-17   1.56340355198698E-16  -5.95572423517796E-13   0.00000000000000E+00   0.00000000000000E+00
      0.00000000000000E+00   0.00000000000000E+00  -1.08876938796024E-16  -4.29537263111906E-17  -1.51830665107214E-16
      4.98715444072077E-13   0.00000000000000E+00   0.00000000000000E+00   0.00000000000000E+00   0.00000000000000E+00
     -7.06253413265166E-20  -4.43906802465072E-18  -4.50969336597723E-18   1.17607213420334E-13
      4.03242222222222E-02
      2.82269555597096E-02   2.82269555597096E-02   0.00000000000000E+00   0.00000000000000E+00   2.48868871255288E-16
      1.08324223936251E-16   3.57193095191539E-16  -5.87470422448689E-13   0.00000000000000E+00   0.00000000000000E+00
      0.00000000000000E+00   0.00000000000000E+00  -2.48707599685637E-16  -9.82062884686866E-17  -3.46913888154324E-16
      4.92007839612095E-13   0.00000000000000E+00   0.00000000000000E+00   0.00000000000000E+00   0.00000000000000E+00
     -1.61276058537448E-19  -1.01182035077633E-17  -1.02794795663008E-17   1.15899352138193E-13
      6.32634681481481E-02
      4.42844277077584E-02   4.42844277077584E-02   0.00000000000000E+00   0.00000000000000E+00   5.70589763740395E-16
      2.48550188847865E-16   8.19139952588260E-16  -5.76644851472222E-13   0.00000000000000E+00   0.00000000000000E+00
      0.00000000000000E+00   0.00000000000000E+00  -5.70220217736295E-16  -2.25419599550623E-16  -7.95639817286919E-16
      4.83026856750071E-13   0.00000000000000E+00   0.00000000000000E+00   0.00000000000000E+00   0.00000000000000E+00
     -3.69586219696863E-19  -2.31311161244201E-17  -2.35007023441169E-17   1.13633540728938E-13
      9.36962010765432E-02
      6.55873407575032E-02   6.55873407575032E-02   0.00000000000000E+00   0.00000000000000E+00   1.45911038023930E-15
      6.36179954449937E-16   2.09529033468924E-15  -5.62143833464464E-13   0.00000000000000E+00   0.00000000000000E+00
      0.00000000000000E+00   0.00000000000000E+00  -1.45816594202785E-15  -5.77272886176557E-16  -2.03543882820440E-15
      4.70967884128101E-13   0.00000000000000E+00   0.00000000000000E+00   0.00000000000000E+00   0.00000000000000E+00
     -9.44444705207551E-19  -5.89073022835073E-17  -5.98517469887148E-17   1.10627478986905E-13
      1.34070293428214E-01
      9.38492054034980E-02   9.38492054034980E-02   0.00000000000000E+00   0.00000000000000E+00   4.59654435589559E-15
      2.00721271460326E-15   6.60375707049886E-15  -5.42650821434447E-13   0.00000000000000E+00   0.00000000000000E+00
      0.00000000000000E+00   0.00000000000000E+00  -4.59357266063344E-15  -1.82280891318722E-15  -6.41638157382066E-15
      4.54710689863286E-13   0.00000000000000E+00   0.00000000000000E+00   0.00000000000000E+00   0.00000000000000E+00
     -2.97169985735864E-18  -1.84403897659799E-16  -1.87375597517158E-16   1.06639288315569E-13
      1.87633255948097E-01
      1.31343279167184E-01   1.31343279167184E-01   0.00000000000000E+00   0.00000000000000E+00   2.00064851887282E-14
      8.78812071767784E-15   2.87946059064060E-14  -5.16311478044697E-13   0.00000000000000E+00   0.00000000000000E+00
      0.00000000000000E+00   0.00000000000000E+00  -1.99935827185221E-14  -7.99352290363101E-15  -2.79871056221531E-14
      4.32661952806190E-13   0.00000000000000E+00   0.00000000000000E+00   0.00000000000000E+00   0.00000000000000E+00
     -1.29024727615401E-17  -7.94597834586147E-16  -8.07500307347687E-16   1.01348029906182E-13
      2.58693452891142E-01
      1.81085417027008E-01   1.81085417027008E-01   0.00000000000000E+00   0.00000000000000E+00   1.37629092980120E-13
      5.98287731656067E-14   1.97457866145727E-13  -4.80431996056928E-13   0.00000000000000E+00   0.00000000000000E+00
      0.00000000000000E+00   0.00000000000000E+00  -1.37540554329111E-13  -5.44338197154730E-14  -1.91974374044584E-13
      4.02474041595322E-13   0.00000000000000E+00   0.00000000000000E+00   0.00000000000000E+00   0.00000000000000E+00
     -8.85386510090686E-17  -5.39495345011449E-15  -5.48349210112355E-15   9.43278452218218E-14
      3.51308576240244E-01
      2.45916003370979E-01   2.45916003370979E-01   0.00000000000000E+00   0.00000000000000E+00   1.69088128503736E-12
      7.33305826227724E-13   2.42418711126509E-12  -4.31768310886640E-13   0.00000000000000E+00   0.00000000000000E+00
      0.00000000000000E+00   0.00000000000000E+00  -1.68979873980644E-12  -6.68274600489541E-13  -2.35807334029598E-12
      3.61228828572730E-13   0.00000000000000E+00   0.00000000000000E+00   0.00000000000000E+00   0.00000000000000E+00
     -1.08254523093876E-15  -6.50312257382832E-14  -6.61137709692220E-14   8.51774519767526E-14
      4.72016953671908E-01
      3.30411867572621E-01   3.30411867572621E-01   0.00000000000000E+00   0.00000000000000E+00   4.44159648968863E-11
      1.91972997297789E-11   6.36132646266651E-11  -3.64133375659461E-13   0.00000000000000E+00   0.00000000000000E+00
      0.00000000000000E+00   0.00000000000000E+00  -4.43877327702046E-11  -1.75337088723380E-11  -6.19214416425426E-11
      3.03263840377291E-13   0.00000000000000E+00   0.00000000000000E+00   0.00000000000000E+00   0.00000000000000E+00
     -2.82321268622250E-14  -1.66359085903239E-12  -1.69182298589461E-12   7.32501939913764E-14
      6.29340205591175E-01
      4.40538143915427E-01   4.40538143915427E-01   0.00000000000000E+00   0.00000000000000E+00   3.14357177122803E-09
      1.35168069303706E-09   4.49525246426509E-09  -2.65213302026771E-13   0.00000000000000E+00   0.00000000000000E+00
      0.00000000000000E+00   0.00000000000000E+00  -3.14151814153664E-09  -1.23827951423037E-09  -4.37979765576702E-09
      2.16949091393448E-13   0.00000000000000E+00   0.00000000000000E+00   0.00000000000000E+00   0.00000000000000E+00
     -2.05363043818620E-12  -1.13401185578774E-10  -1.15454816016960E-10   5.77029721288634E-14
      8.29340205591175E-01
      5.80538143914561E-01   5.80538143914561E-01   0.00000000000000E+00   0.00000000000000E+00   6.90914260984043E-07
      2.97072880893311E-07   9.87987141877353E-07  -1.16271353308665E-13   0.00000000000000E+00   0.00000000000000E+00
      0.00000000000000E+00   0.00000000000000E+00  -6.86533877164409E-07  -2.72950340856179E-07  -9.59484218020587E-07
      8.40566384542465E-14   0.00000000000000E+00   0.00000000000000E+00   0.00000000000000E+00   0.00000000000000E+00
     -4.38038381963511E-09  -2.41225400371421E-08  -2.85029238567772E-08   3.79390145271047E-14
      1.00000000000000E+00
      7.00000000000000E-01   7.00000000000000E-01   0.00000000000000E+00   0.00000000000000E+00   3.68305793079768E-05
      1.84821889644150E-05   5.53127682723918E-05  -3.64273823428530E-14   0.00000000000000E+00   0.00000000000000E+00
      0.00000000000000E+00   0.00000000000000E+00  -2.98330313551817E-05  -1.62496569625662E-05  -4.60826883177479E-05
      1.84180527071642E-14   0.00000000000000E+00   0.00000000000000E+00   0.00000000000000E+00   0.00000000000000E+00
     -6.99754795279854E-06  -2.23253200186555E-06  -9.23007995466410E-06   2.12537230427219E-14
      1.00000000000000E-03
      7.00000000000000E-01   7.00000000000000E-01   0.00000000000000E+00   0.00000000000000E+00   2.90214420850259E-05
      1.43209761456777E-05   4.33424182307036E-05  -3.79969888076835E-14   1.10000000000000E-02   1.10000000000000E-02
      0.00000000000000E+00   0.00000000000000E+00  -2.07408756185574E-05  -1.20792677442352E-05  -3.28201433627926E-05
      2.01128819260273E-14   0.00000000000000E+00   0.00000000000000E+00   0.00000000000000E+00   0.00000000000000E+00
     -8.28056646646853E-06  -2.24170840144246E-06  -1.05222748679110E-05   2.12386416021703E-14
      2.28000000000000E-03
      7.00000000000000E-01   7.00000000000000E-01   0.00000000000000E+00   0.00000000000000E+00   2.10247227016803E-05
      1.03156122030612E-05   3.13403349047416E-05  -4.04446779623134E-14   2.50800000000000E-02   2.50800000000000E-02
      0.00000000000000E+00   0.00000000000000E+00  -1.12866947569034E-05  -8.06408699331545E-06  -1.93507817502189E-05
      2.27347373283500E-14   0.00000000000000E+00   0.00000000000000E+00   0.00000000000000E+00   0.00000000000000E+00
     -9.73802794477688E-06  -2.25152520974578E-06  -1.19895531545227E-05   2.12225969559713E-14
      3.94826666666667E-03
      7.00000000000000E-01   7.00000000000000E-01   0.00000000000000E+00   0.00000000000000E+00   1.33405770506707E-05
      6.83580312110892E-06   2.01763801717796E-05  -4.46187448832808E-14   4.34309333333333E-02   4.34309333333333E-02
      0.00000000000000E+00   0.00000000000000E+00  -2.01309948878660E-06  -4.57458440489890E-06  -6.58768389368550E-06
      2.71650460419469E-14   0.00000000000000E+00   0.00000000000000E+00   0.00000000000000E+00   0.00000000000000E+00
     -1.13274775618841E-05  -2.26121871621004E-06  -1.35886962780941E-05   2.12068481077267E-14
      6.12257422222222E-03
      7.00000000000000E-01   7.00000000000000E-01   0.00000000000000E+00   0.00000000000000E+00   6.87082851975589E-06
      4.32419801316959E-06   1.11950265329255E-05  -5.24408729451895E-14   6.73483164444445E-02   6.73483164444445E-02
      0.00000000000000E+00   0.00000000000000E+00   6.00586440176929E-06  -2.05489065397939E-06   3.95097374778989E-06
      3.53836221583217E-14   0.00000000000000E+00   0.00000000000000E+00   0.00000000000000E+00   0.00000000000000E+00
     -1.28766929215259E-05  -2.26930735920572E-06  -1.51460002807316E-05   2.11937852014047E-14
      8.95642173629630E-03
      7.00000000000000E-01   7.00000000000000E-01   0.00000000000000E+00   0.00000000000000E+00   2.55344079436299E-06
      2.94399244181169E-06   5.49743323617468E-06  -6.83664963011708E-14   9.85206390992593E-02   9.85206390992593E-02
      0.00000000000000E+00   0.00000000000000E+00   1.15176744928857E-05  -6.69577642718331E-07   1.08480968501674E-05
      5.19449772971724E-14   0.00000000000000E+00   0.00000000000000E+00   0.00000000000000E+00   0.00000000000000E+00
     -1.40711152894634E-05  -2.27441481838417E-06  -1.63455301078475E-05   2.11855814552373E-14
      1.26498696629728E-02
      7.00000000000000E-01   7.00000000000000E-01   0.00000000000000E+00   0.00000000000000E+00   6.20296636608716E-07
      2.42112033239668E-06   3.04141696900540E-06  -9.97276382040880E-14   1.39148566292701E-01   1.39148566292701E-01
      0.00000000000000E+00   0.00000000000000E+00   1.40373644833508E-05  -1.44581544022893E-07   1.38927829393279E-05
      8.42901774751350E-14   0.00000000000000E+00   0.00000000000000E+00   0.00000000000000E+00   0.00000000000000E+00
     -1.46576611199596E-05  -2.27653878837379E-06  -1.69341999083333E-05   2.11821838143181E-14
      1.73774830091188E-02
      7.00000000000000E-01   7.00000000000000E-01   0.00000000000000E+00   0.00000000000000E+00   1.21474805062284E-07
      2.29661936455867E-06   2.41809416962096E-06  -1.48950085784572E-13   1.91152313100307E-01   1.91152313100307E-01
      0.00000000000000E+00   0.00000000000000E+00   1.46852183925180E-05  -1.95671080788441E-08   1.46656512844392E-05
      1.34874193267207E-13   0.00000000000000E+00   0.00000000000000E+00   0.00000000000000E+00   0.00000000000000E+00
     -1.48066931975803E-05  -2.27705225647983E-06  -1.70837454540601E-05   2.11813644536230E-14
      2.34288280921857E-02
      7.00000000000000E-01   7.00000000000000E-01   0.00000000000000E+00   0.00000000000000E+00   4.81306787347555E-08
      2.27860757055490E-06   2.32673824928966E-06  -2.10320191631171E-13   2.57717109014042E-01   2.57717109014042E-01
      0.00000000000000E+00   0.00000000000000E+00   1.47777759884902E-05  -1.49548037612328E-09   1.47762805081141E-05
      1.98018341499396E-13   0.00000000000000E+00   0.00000000000000E+00   0.00000000000000E+00   0.00000000000000E+00
     -1.48259066672250E-05  -2.27711209017884E-06  -1.71030187574038E-05   2.11812696842064E-14
      3.13157478504495E-02
      7.00000000000000E-01   7.00000000000000E-01   0.00000000000000E+00   0.00000000000000E+00   4.22915137532960E-08
      2.27715259465453E-06   2.31944410840782E-06  -2.79829903461405E-13   3.44473226354944E-01   3.44473226354944E-01
      0.00000000000000E+00   0.00000000000000E+00   1.47870150664540E-05  -5.22640992977470E-11   1.47869628023547E-05
      2.69845142810969E-13   0.00000000000000E+00   0.00000000000000E+00   0.00000000000000E+00   0.00000000000000E+00
     -1.48293065802073E-05  -2.27710033055523E-06  -1.71064069107625E-05   2.11812893796181E-14
      4.14110051410271E-02
      7.00000000000000E-01   7.00000000000000E-01   0.00000000000000E+00   0.00000000000000E+00   4.20512780450865E-08
      2.27708230339681E-06   2.31913358144190E-06  -3.56092120064069E-13   4.55521056551298E-01   4.55521056551298E-01
      0.00000000000000E+00   0.00000000000000E+00   1.47906334637438E-05  -7.13475342012693E-13   1.47906327502684E-05
      3.49073664775101E-13   0.00000000000000E+00   0.00000000000000E+00   0.00000000000000E+00   0.00000000000000E+00
     -1.48326847417888E-05  -2.27708158992147E-06  -1.71097663317103E-05   2.11813203253935E-14
      5.43329344729665E-02
      7.00000000000000E-01   7.00000000000000E-01   0.00000000000000E+00   0.00000000000000E+00   4.20039140376132E-08
      2.27706066390964E-06   2.31906457794725E-06  -4.41340688582956E-13   5.97662279202632E-01   5.97662279202632E-01
      0.00000000000000E+00   0.00000000000000E+00   1.47945389957194E-05  -2.87107125894431E-15   1.47945389928483E-05
      4.38118704283590E-13   0.00000000000000E+00   0.00000000000000E+00   0.00000000000000E+00   0.00000000000000E+00
     -1.48365429097570E-05  -2.27706066103857E-06  -1.71136035707956E-05   2.11813548788974E-14
      7.08730040178490E-02
      7.00000000000000E-01   7.00000000000000E-01   0.00000000000000E+00   0.00000000000000E+00   4.19519015285844E-08
      2.27703706092826E-06   2.31898896245684E-06  -5.38147332951475E-13   7.79603044196339E-01   7.79603044196339E-01
      0.00000000000000E+00   0.00000000000000E+00   1.47991287078932E-05   5.38749770919489E-17   1.47991287079471E-05
      5.39368230413868E-13   0.00000000000000E+00   0.00000000000000E+00   0.00000000000000E+00   0.00000000000000E+00
     -1.48410806094218E-05  -2.27703706098213E-06  -1.71181176704039E-05   2.11813938499383E-14
      8.12656810485501E-02
      7.00000000000000E-01   7.00000000000000E-01   0.00000000000000E+00   0.00000000000000E+00   4.19215165057183E-08
      2.27702359583354E-06   2.31894511233926E-06  -5.93698225743477E-13   8.93922491534051E-01   8.93922491534051E-01
      0.00000000000000E+00   0.00000000000000E+00   1.48018284286722E-05   5.64029690786067E-17   1.48018284287286E-05
      5.95453936157128E-13   0.00000000000000E+00   0.00000000000000E+00   0.00000000000000E+00   0.00000000000000E+00
     -1.48437499451779E-05  -2.27702359588999E-06  -1.71207735410679E-05   2.11814160882745E-14
      9.38408202556985E-02
      7.00000000000000E-01   7.00000000000000E-01   0.00000000000000E+00   0.00000000000000E+00   4.18870717366396E-08
      2.27700839914536E-06   2.31889547088200E-06  -6.56673336849312E-13   1.03224902281268E+00   1.03224902281268E+00
      0.00000000000000E+00   0.00000000000000E+00   1.48049044132687E-05   5.64685091921214E-17   1.48049044133252E-05
      6.58439897725981E-13   0.00000000000000E+00   0.00000000000000E+00   0.00000000000000E+00   0.00000000000000E+00
     -1.48467914850053E-05  -2.27700839920182E-06  -1.71237998842072E-05   2.11814411878215E-14
      1.07883059037014E-01
      7.00000000000000E-01   7.00000000000000E-01   0.00000000000000E+00   0.00000000000000E+00   4.18510275416636E-08
      2.27699241727679E-06   2.31884344481845E-06  -7.23124106306574E-13   1.18671364940716E+00   1.18671364940716E+00
      0.00000000000000E+00   0.00000000000000E+00   1.48081380678731E-05   5.64926679502238E-17   1.48081380679296E-05
      7.24891274349236E-13   0.00000000000000E+00   0.00000000000000E+00   0.00000000000000E+00   0.00000000000000E+00
     -1.48499890954148E-05  -2.27699241733329E-06  -1.71269815127480E-05   2.11814675845657E-14
      1.25857124677098E-01
      7.00000000000000E-01   7.00000000000000E-01   0.00000000000000E+00   0.00000000000000E+00   4.18072124852718E-08
      2.27697292953623E-06   2.31878014202150E-06  -8.04226567365264E-13   1.38442837144808E+00   1.38442837144808E+00
      0.00000000000000E+00   0.00000000000000E+00   1.48120870240025E-05   5.65234122466755E-17   1.48120870240590E-05
      8.05994625928317E-13   0.00000000000000E+00   0.00000000000000E+00   0.00000000000000E+00   0.00000000000000E+00
     -1.48538942364878E-05  -2.27697292959276E-06  -1.71308671660805E-05   2.11814997725920E-14
      1.48863928696406E-01
      7.00000000000000E-01   7.00000000000000E-01   0.00000000000000E+00   0.00000000000000E+00   4.17533214875568E-08
      2.27694927898471E-06   2.31870260047227E-06  -9.02699441715931E-13   1.63750321566046E+00   1.63750321566046E+00
      0.00000000000000E+00   0.00000000000000E+00   1.48169730960332E-05   5.65626207732983E-17   1.48169730960897E-05
      9.04468866592006E-13   0.00000000000000E+00   0.00000000000000E+00   0.00000000000000E+00   0.00000000000000E+00
     -1.48587264175208E-05  -2.27694927904127E-06  -1.71356756965620E-05   2.11815388404174E-14
      1.78312637841120E-01
      7.00000000000000E-01   7.00000000000000E-01   0.00000000000000E+00   0.00000000000000E+00   4.16865646834342E-08
      2.27692112442992E-06   2.31860768911336E-06  -1.02024122326422E-12   1.96143901625232E+00   1.96143901625232E+00
      0.00000000000000E+00   0.00000000000000E+00   1.48230757885968E-05   5.66102482250500E-17   1.48230757886534E-05
      1.02201209864915E-12   0.00000000000000E+00   0.00000000000000E+00   0.00000000000000E+00   0.00000000000000E+00
     -1.48647623532804E-05  -2.27692112448653E-06  -1.71416834777669E-05   2.11815853594716E-14
      2.16006985546353E-01
      7.00000000000000E-01   7.00000000000000E-01   0.00000000000000E+00   0.00000000000000E+00   4.16042217805876E-08
      2.27688801416280E-06   2.31849223594339E-06  -1.15934933560890E-12   2.37607684100989E+00   2.37607684100989E+00
      0.00000000000000E+00   0.00000000000000E+00   1.48306850073317E-05   5.66676255261219E-17   1.48306850073883E-05
      1.16112186342544E-12   0.00000000000000E+00   0.00000000000000E+00   0.00000000000000E+00   0.00000000000000E+00
     -1.48722892291124E-05  -2.27688801421947E-06  -1.71491772433319E-05   2.11816400834814E-14
      2.63376215829264E-01
      7.00000000000000E-01   7.00000000000000E-01   0.00000000000000E+00   0.00000000000000E+00   4.15121635337550E-08
      2.27685012485938E-06   2.31836228839313E-06  -1.31982546000987E-12   2.89713837412190E+00   2.89713837412190E+00
      0.00000000000000E+00   0.00000000000000E+00   1.48392769148639E-05   5.67342190046097E-17   1.48392769149206E-05
      1.32159987169748E-12   0.00000000000000E+00   0.00000000000000E+00   0.00000000000000E+00   0.00000000000000E+00
     -1.48807890783978E-05  -2.27685012491612E-06  -1.71576392033139E-05   2.11817027041419E-14
      3.13376215829264E-01
      7.00000000000000E-01   7.00000000000000E-01   0.00000000000000E+00   0.00000000000000E+00   4.14255076799875E-08
      2.27681264163944E-06   2.31823814931943E-06  -1.47898716426955E-12   3.44713837412190E+00   3.44713837412190E+00
      0.00000000000000E+00   0.00000000000000E+00   1.48474208172177E-05   5.67986425241131E-17   1.48474208172745E-05
      1.48076350541691E-12   0.00000000000000E+00   0.00000000000000E+00   0.00000000000000E+00   0.00000000000000E+00
     -1.48888463248975E-05  -2.27681264169624E-06  -1.71656589665937E-05   2.11817646431483E-14
      3.63376215829263E-01
      7.00000000000000E-01   7.00000000000000E-01   0.00000000000000E+00   0.00000000000000E+00   4.13420052495485E-08
      2.27677682024972E-06   2.31811882549927E-06  -1.63109571785610E-12   3.99713837412190E+00   3.99713837412190E+00
      0.00000000000000E+00   0.00000000000000E+00   1.48553267995812E-05   5.68591302831041E-17   1.48553267996380E-05
      1.63287385300370E-12   0.00000000000000E+00   0.00000000000000E+00   0.00000000000000E+00   0.00000000000000E+00
     -1.48966688048306E-05  -2.27677682030658E-06  -1.71734456251372E-05   2.11818238421704E-14
      4.13376215829263E-01
      7.00000000000000E-01   7.00000000000000E-01   0.00000000000000E+00   0.00000000000000E+00   4.12587125674236E-08
      2.27674284152208E-06   2.31800155408951E-06  -1.77551216278521E-12   4.54713837412190E+00   4.54713837412190E+00
      0.00000000000000E+00   0.00000000000000E+00   1.48632718325126E-05   5.69165480441870E-17   1.48632718325695E-05
      1.77729196012853E-12   0.00000000000000E+00   0.00000000000000E+00   0.00000000000000E+00   0.00000000000000E+00
     -1.49045305450800E-05  -2.27674284157900E-06  -1.71812733866590E-05   2.11818800132456E-14
      4.63376215829263E-01
      7.00000000000000E-01   7.00000000000000E-01   0.00000000000000E+00   0.00000000000000E+00   4.11734569769868E-08
      2.27671039444731E-06   2.31788385142430E-06  -1.91377271441260E-12   5.09713837412190E+00   5.09713837412190E+00
      0.00000000000000E+00   0.00000000000000E+00   1.48715002674309E-05   5.69711486131109E-17   1.48715002674879E-05
      1.91555411393687E-12   0.00000000000000E+00   0.00000000000000E+00   0.00000000000000E+00   0.00000000000000E+00
     -1.49126737244079E-05  -2.27671039450428E-06  -1.71893841189122E-05   2.11819336763337E-14
      5.13376215829264E-01
      7.00000000000000E-01   7.00000000000000E-01   0.00000000000000E+00   0.00000000000000E+00   4.10888693818208E-08
      2.27667988395022E-06   2.31776875333204E-06  -2.04466559562128E-12   5.64713837412190E+00   5.64713837412190E+00
      0.00000000000000E+00   0.00000000000000E+00   1.48797375334619E-05   5.70245683587167E-17   1.48797375335189E-05
      2.04644854337377E-12   0.00000000000000E+00   0.00000000000000E+00   0.00000000000000E+00   0.00000000000000E+00
     -1.49208264028437E-05  -2.27667988400724E-06  -1.71975062868509E-05   2.11819841554946E-14
      5.63376215829264E-01
      7.00000000000000E-01   7.00000000000000E-01   0.00000000000000E+00   0.00000000000000E+00   4.10121953993390E-08
      2.27665114364138E-06   2.31766333904072E-06  -2.16896755402772E-12   6.19713837412190E+00   6.19713837412190E+00
      0.00000000000000E+00   0.00000000000000E+00   1.48872616194417E-05   5.70767942811063E-17   1.48872616194988E-05
      2.17075199476480E-12   0.00000000000000E+00   0.00000000000000E+00   0.00000000000000E+00   0.00000000000000E+00
     -1.49282738148410E-05  -2.27665114369846E-06  -1.72049249585395E-05   2.11820316988601E-14
      6.13376215829264E-01
      7.00000000000000E-01   7.00000000000000E-01   0.00000000000000E+00   0.00000000000000E+00   4.09438909513469E-08
      2.27662329147670E-06   2.31756718242805E-06  -2.28979259090333E-12   6.74713837412190E+00   6.74713837412190E+00
      0.00000000000000E+00   0.00000000000000E+00   1.48939909345979E-05   5.71286394671181E-17   1.48939909346550E-05
      2.29157843523072E-12   0.00000000000000E+00   0.00000000000000E+00   0.00000000000000E+00   0.00000000000000E+00
     -1.49349348255492E-05  -2.27662329153383E-06  -1.72115581170831E-05   2.11820777543298E-14
      6.63376215829264E-01
      7.00000000000000E-01   7.00000000000000E-01   0.00000000000000E+00   0.00000000000000E+00   4.08805235998658E-08
      2.27659614134139E-06   2.31747666494126E-06  -2.40758697484287E-12   7.29713837412190E+00   7.29713837412190E+00
      0.00000000000000E+00   0.00000000000000E+00   1.49002543585061E-05   5.71820379212410E-17   1.49002543585633E-05
      2.40937426315104E-12   0.00000000000000E+00   0.00000000000000E+00   0.00000000000000E+00   0.00000000000000E+00
     -1.49411348821061E-05  -2.27659614139857E-06  -1.72177310235046E-05   2.11821226394899E-14
      7.13376215829264E-01
      7.00000000000000E-01   7.00000000000000E-01   0.00000000000000E+00   0.00000000000000E+00   4.08196991059177E-08
      2.27656972902149E-06   2.31738942812741E-06  -2.52212608743137E-12   7.84713837412190E+00   7.84713837412190E+00
      0.00000000000000E+00   0.00000000000000E+00   1.49062899489555E-05   5.72394733502097E-17   1.49062899490128E-05
      2.52391486558269E-12   0.00000000000000E+00   0.00000000000000E+00   0.00000000000000E+00   0.00000000000000E+00
     -1.49471096480616E-05  -2.27656972907873E-06  -1.72236793771403E-05   2.11821663037460E-14
      7.63376215829264E-01
      7.00000000000000E-01   7.00000000000000E-01   0.00000000000000E+00   0.00000000000000E+00   4.07595521153845E-08
      2.27654381343017E-06   2.31730336554556E-06  -2.63438229928129E-12   8.39713837412190E+00   8.39713837412190E+00
      0.00000000000000E+00   0.00000000000000E+00   1.49122845343039E-05   5.73019859543120E-17   1.49122845343612E-05
      2.63617253031022E-12   0.00000000000000E+00   0.00000000000000E+00   0.00000000000000E+00   0.00000000000000E+00
     -1.49530440864194E-05  -2.27654381348748E-06  -1.72295878999069E-05   2.11822091502191E-14
      8.13376215829264E-01
      7.00000000000000E-01   7.00000000000000E-01   0.00000000000000E+00   0.00000000000000E+00   4.06991733506509E-08
      2.27651833869690E-06   2.31721751204755E-06  -2.74458065646957E-12   8.94713837412190E+00   8.94713837412190E+00
      0.00000000000000E+00   0.00000000000000E+00   1.49183304366829E-05   5.73624900942290E-17   1.49183304367403E-05
      2.74637233574251E-12   0.00000000000000E+00   0.00000000000000E+00   0.00000000000000E+00   0.00000000000000E+00
     -1.49590296100337E-05  -2.27651833875426E-06  -1.72355479487880E-05   2.11822512740142E-14
      8.63376215829264E-01
      7.00000000000000E-01   7.00000000000000E-01   0.00000000000000E+00   0.00000000000000E+00   4.06383566064413E-08
      2.27649346512510E-06   2.31713182173154E-06  -2.85209198316966E-12   9.49713837412190E+00   9.49713837412190E+00
      0.00000000000000E+00   0.00000000000000E+00   1.49244505884011E-05   5.74177208848328E-17   1.49244505884585E-05
      2.85388505218537E-12   0.00000000000000E+00   0.00000000000000E+00   0.00000000000000E+00   0.00000000000000E+00
     -1.49650889450074E-05  -2.27649346518251E-06  -1.72415824101899E-05   2.11822924121543E-14
      9.13376215829264E-01
      7.00000000000000E-01   7.00000000000000E-01   0.00000000000000E+00   0.00000000000000E+00   4.05765294670669E-08
      2.27646918155503E-06   2.31704571102209E-06  -2.95701027023879E-12   1.00471383741219E+01   1.00471383741219E+01
      0.00000000000000E+00   0.00000000000000E+00   1.49307057427704E-05   5.74687985507014E-17   1.49307057428278E-05
      2.95880464471462E-12   0.00000000000000E+00   0.00000000000000E+00   0.00000000000000E+00   0.00000000000000E+00
     -1.49712822722373E-05  -2.27646918161250E-06  -1.72477514538497E-05   2.11823325850898E-14
      9.63376215829264E-01
      7.00000000000000E-01   7.00000000000000E-01   0.00000000000000E+00   0.00000000000000E+00   4.05127056763435E-08
      2.27644534516143E-06   2.31695805083777E-06  -3.06001007844940E-12   1.05971383741219E+01   1.05971383741219E+01