DF-ISE text

Info {
  version   = 1.0
  type      = xyplot
  datasets  = [
    "time"
    "baze OuterVoltage" "baze InnerVoltage" "baze QuasiFermiPotential" "baze DisplacementCurrent" "baze eCurrent"
    "baze hCurrent" "baze TotalCurrent" "baze Charge" "koll_c0 OuterVoltage" "koll_c0 InnerVoltage"
    "koll_c0 QuasiFermiPotential" "koll_c0 DisplacementCurrent" "koll_c0 eCurrent" "koll_c0 hCurrent" "koll_c0 TotalCurrent"
    "koll_c0 Charge" "emit OuterVoltage" "emit InnerVoltage" "emit QuasiFermiPotential" "emit DisplacementCurrent"
    "emit eCurrent" "emit hCurrent" "emit TotalCurrent" "emit Charge" ]
  functions = [
    Time
    OuterVoltage InnerVoltage QuasiFermiPotential DisplacementCurrent eCurrent
    hCurrent TotalCurrent Charge OuterVoltage InnerVoltage
    QuasiFermiPotential DisplacementCurrent eCurrent hCurrent TotalCurrent
    Charge OuterVoltage InnerVoltage QuasiFermiPotential DisplacementCurrent
    eCurrent hCurrent TotalCurrent Charge ]
}

Data {
      0.00000000000000E+00
      0.00000000000000E+00   0.00000000000000E+00   0.00000000000000E+00   0.00000000000000E+00   1.03567918102409E-23
     -1.82040065910567E-21  -1.81004386729543E-21  -6.06289444526481E-13   0.00000000000000E+00   0.00000000000000E+00
      0.00000000000000E+00   0.00000000000000E+00  -1.03568012983314E-23   1.82040089998877E-21   1.81004409869044E-21
      5.07565828987164E-13   0.00000000000000E+00   0.00000000000000E+00   0.00000000000000E+00   0.00000000000000E+00
      2.69597017855223E-30  -2.74605962534141E-28  -2.71909992355589E-28   1.19882219900828E-13
      0.00000000000000E+00
      4.32855061985353E-12   4.32855061985353E-12   0.00000000000000E+00   0.00000000000000E+00  -2.12815070664782E-25
     -2.04180906210799E-24  -2.25462413277277E-24  -6.06289444290086E-13   0.00000000000000E+00   0.00000000000000E+00
      0.00000000000000E+00   0.00000000000000E+00   2.12795518280206E-25   2.04898016381791E-24   2.26177568209811E-24
      5.07565828751301E-13   0.00000000000000E+00   0.00000000000000E+00   0.00000000000000E+00   0.00000000000000E+00
      2.01093143585504E-29  -7.83566324502646E-28  -7.63457010144096E-28   1.19882219900217E-13
      1.00000000000000E-02
      1.50000000042853E-02   1.50000000042853E-02   0.00000000000000E+00   0.00000000000000E+00   9.90706019737658E-17
      4.31247299752345E-17   1.42195331949000E-16  -5.96321877743508E-13   0.00000000000000E+00   0.00000000000000E+00
      0.00000000000000E+00   0.00000000000000E+00  -9.90067125617312E-17  -3.90947337724492E-17  -1.38101446334180E-16
      4.99335238116968E-13   0.00000000000000E+00   0.00000000000000E+00   0.00000000000000E+00   0.00000000000000E+00
     -6.42390586252543E-20  -4.03350470098147E-18  -4.09774375960672E-18   1.17765717874323E-13
      2.30333333333333E-02
      3.45500000042289E-02   3.45500000042289E-02   0.00000000000000E+00   0.00000000000000E+00   3.52464711387194E-16
      1.53537171021740E-16   5.06001882408933E-16  -5.83218144625730E-13   0.00000000000000E+00   0.00000000000000E+00
      0.00000000000000E+00   0.00000000000000E+00  -3.52236440626875E-16  -1.39224893469023E-16  -4.91461334095898E-16
      4.88482482139864E-13   0.00000000000000E+00   0.00000000000000E+00   0.00000000000000E+00   0.00000000000000E+00
     -2.28366027903446E-19  -1.43137427965156E-17  -1.45421088244190E-17   1.15007136989279E-13
      4.03242222222222E-02
      6.04863333374873E-02   6.04863333374873E-02   0.00000000000000E+00   0.00000000000000E+00   1.17583621983321E-15
      5.13535433263715E-16   1.68937165309693E-15  -5.65630837415867E-13   0.00000000000000E+00   0.00000000000000E+00
      0.00000000000000E+00   0.00000000000000E+00  -1.17507516981549E-15  -4.66019920386643E-16  -1.64109509020213E-15
      4.73870478571218E-13   0.00000000000000E+00   0.00000000000000E+00   0.00000000000000E+00   0.00000000000000E+00
     -7.61185614828671E-19  -4.75175085148979E-17  -4.82786941297265E-17   1.11347292799563E-13
      6.32634681481481E-02
      9.48952022262769E-02   9.48952022262769E-02   0.00000000000000E+00   0.00000000000000E+00   4.79287985333071E-15
      2.10797648868633E-15   6.90085634201704E-15  -5.41923589117033E-13   0.00000000000000E+00   0.00000000000000E+00
      0.00000000000000E+00   0.00000000000000E+00  -4.78978245375920E-15  -1.91580647834801E-15  -6.70558893210721E-15
      4.54103175943775E-13   0.00000000000000E+00   0.00000000000000E+00   0.00000000000000E+00   0.00000000000000E+00
     -3.09749308139332E-18  -1.92171028603741E-16  -1.95268521685134E-16   1.06491678587506E-13
      9.36962010765432E-02
      1.40544301618738E-01   1.40544301618738E-01   0.00000000000000E+00   0.00000000000000E+00   2.86709064679199E-14
      1.29306043966214E-14   4.16015108645413E-14  -5.09758914917589E-13   0.00000000000000E+00   0.00000000000000E+00
      0.00000000000000E+00   0.00000000000000E+00  -2.86524654461501E-14  -1.17971112394961E-14  -4.04495766856462E-14
      4.27162189646242E-13   0.00000000000000E+00   0.00000000000000E+00   0.00000000000000E+00   0.00000000000000E+00
     -1.84410371981343E-17  -1.13349334524461E-15  -1.15193438244274E-15   1.00049513725571E-13
      1.34070293428214E-01
      2.01105440146069E-01   2.01105440146069E-01   0.00000000000000E+00   0.00000000000000E+00   2.98689821737764E-13
      1.29750817421564E-13   4.28440639159328E-13  -4.65653707494442E-13   0.00000000000000E+00   0.00000000000000E+00
      0.00000000000000E+00   0.00000000000000E+00  -2.98497939134072E-13  -1.18109669946650E-13  -4.16607609080723E-13
      3.89986536607597E-13   0.00000000000000E+00   0.00000000000000E+00   0.00000000000000E+00   0.00000000000000E+00
     -1.91882603695117E-16  -1.16411474749708E-14  -1.18330300786659E-14   9.15022461326169E-14
      1.86691193793225E-01
      2.80036790693358E-01   2.80036790693358E-01   0.00000000000000E+00   0.00000000000000E+00   6.32866083706389E-12
      2.74101112301675E-12   9.06967196008064E-12  -4.05112340857396E-13   0.00000000000000E+00   0.00000000000000E+00
      0.00000000000000E+00   0.00000000000000E+00  -6.32462060761489E-12  -2.50014404751176E-12  -8.82476465512665E-12
      3.38477570694023E-13   0.00000000000000E+00   0.00000000000000E+00   0.00000000000000E+00   0.00000000000000E+00
     -4.04022944922731E-15  -2.40867075505601E-13  -2.44907304954828E-13   8.03612010623278E-14
      2.55273767268956E-01
      3.82910650906657E-01   3.82910650906657E-01   0.00000000000000E+00   0.00000000000000E+00   3.38396777292396E-10
      1.45918847124189E-10   4.84315624416585E-10  -3.18864531887512E-13   0.00000000000000E+00   0.00000000000000E+00
      0.00000000000000E+00   0.00000000000000E+00  -3.38182105857669E-10  -1.33463746894491E-10  -4.71645852752160E-10
      2.64003810844274E-13   0.00000000000000E+00   0.00000000000000E+00   0.00000000000000E+00   0.00000000000000E+00
     -2.14671506167629E-13  -1.24551008670160E-11  -1.26697723731836E-11   6.58388861557685E-14
      3.44659721365658E-01
      5.16989582051324E-01   5.16989582051324E-01   0.00000000000000E+00   0.00000000000000E+00   6.03722159454010E-08
      2.58601362978179E-08   8.62323522432190E-08  -1.85876606555442E-13   0.00000000000000E+00   0.00000000000000E+00
      0.00000000000000E+00   0.00000000000000E+00  -6.03041154023369E-08  -2.37397886919558E-08  -8.40439040942927E-08
      1.46366322806601E-13   0.00000000000000E+00   0.00000000000000E+00   0.00000000000000E+00   0.00000000000000E+00
     -6.81005430641352E-11  -2.12034760586155E-09  -2.18844814892568E-09   4.69088465352447E-14
      4.59073742609438E-01
      6.88610613916498E-01   6.88610613916498E-01   0.00000000000000E+00   0.00000000000000E+00   2.67401542393623E-05
      1.32368254870797E-05   3.99769797264420E-05  -4.05518344501393E-14   0.00000000000000E+00   0.00000000000000E+00
      0.00000000000000E+00   0.00000000000000E+00  -2.26503123152990E-05  -1.17771083260528E-05  -3.44274206413518E-05
      2.11593505691010E-14   0.00000000000000E+00   0.00000000000000E+00   0.00000000000000E+00   0.00000000000000E+00
     -4.08984192406435E-06  -1.45971716103291E-06  -5.54955908509727E-06   2.28108825010156E-14
      5.30963885957612E-01
      7.96445828938449E-01   7.96445828938449E-01   0.00000000000000E+00   0.00000000000000E+00   4.26807214965110E-04
      1.93746712810439E-04   6.20553927775549E-04  -1.35238276938819E-14   0.00000000000000E+00   0.00000000000000E+00
      0.00000000000000E+00   0.00000000000000E+00  -1.97754992653062E-04  -1.29510979354215E-04  -3.27265972007276E-04
      5.85649731852482E-15   0.00000000000000E+00   0.00000000000000E+00   0.00000000000000E+00   0.00000000000000E+00
     -2.29052222312050E-04  -6.42357334562276E-05  -2.93287955768277E-04   9.65871792356037E-15
      6.19628396087028E-01
      9.29442594132188E-01   9.29442594132188E-01   0.00000000000000E+00   0.00000000000000E+00   4.91514457724293E-03
      2.02467361568083E-03   6.93981819292376E-03  -3.76642786032603E-15   0.00000000000000E+00   0.00000000000000E+00
      0.00000000000000E+00   0.00000000000000E+00  -1.06952552484300E-03  -6.17606502792651E-04  -1.68713202763565E-03
      1.89829697833772E-15   0.00000000000000E+00   0.00000000000000E+00   0.00000000000000E+00   0.00000000000000E+00
     -3.84561905239994E-03  -1.40706711288818E-03  -5.25268616528811E-03   2.87046086649225E-15
      7.24843614773934E-01
      1.08726542216209E+00   1.08726542216209E+00   0.00000000000000E+00   0.00000000000000E+00   2.54289491887488E-02
      1.05250704994217E-02   3.59540196881705E-02  -1.26053013010574E-15   0.00000000000000E+00   0.00000000000000E+00
      0.00000000000000E+00   0.00000000000000E+00  -3.24338931899156E-03  -1.65235820476840E-03  -4.89574752375995E-03
      7.99114353040674E-16   0.00000000000000E+00   0.00000000000000E+00   0.00000000000000E+00   0.00000000000000E+00
     -2.21855598697583E-02  -8.87271229465477E-03  -3.10582721644130E-02   1.07215385361895E-15
      8.57064072923813E-01
      1.28559610938634E+00   1.28559610938634E+00   0.00000000000000E+00   0.00000000000000E+00   7.93305307817259E-02
      3.34256655894316E-02   1.12756196371158E-01  -1.92023218970727E-16   0.00000000000000E+00   0.00000000000000E+00
      0.00000000000000E+00   0.00000000000000E+00  -6.96815270872228E-03  -3.29142288846365E-03  -1.02595755971859E-02
      3.48400940255995E-16   0.00000000000000E+00   0.00000000000000E+00   0.00000000000000E+00   0.00000000000000E+00
     -7.23623781058770E-02  -3.01342427271804E-02  -1.02496620833057E-01   3.33014790266087E-16
      1.00000000000000E+00
      1.50000000000000E+00   1.50000000000000E+00   0.00000000000000E+00   0.00000000000000E+00   1.65924029399178E-01
      7.07587378538169E-02   2.36682767252995E-01   3.60002769341736E-16   0.00000000000000E+00   0.00000000000000E+00
      0.00000000000000E+00   0.00000000000000E+00  -1.08387148079751E-02  -4.93751060757307E-03  -1.57762254155482E-02
      2.25513722740020E-16   0.00000000000000E+00   0.00000000000000E+00   0.00000000000000E+00   0.00000000000000E+00
     -1.55085314591232E-01  -6.58212272462601E-02  -2.20906541837492E-01  -8.89512446143768E-17
      1.00000000000000E-03
      1.50000000000000E+00   1.50000000000000E+00   0.00000000000000E+00   0.00000000000000E+00   1.65745532495244E-01
      7.06853587638237E-02   2.36430891259068E-01   3.58140381367877E-16   1.10000000000000E-02   1.10000000000000E-02
      0.00000000000000E+00   0.00000000000000E+00  -1.06520203733841E-02  -4.86055718865425E-03  -1.55125775620384E-02
      2.29161061749700E-16   0.00000000000000E+00   0.00000000000000E+00   0.00000000000000E+00   0.00000000000000E+00
     -1.55093512121868E-01  -6.58248015751738E-02  -2.20918313697042E-01  -8.89962227034200E-17
      2.30333333333333E-03
      1.50000000000000E+00   1.50000000000000E+00   0.00000000000000E+00   0.00000000000000E+00   1.65507511528159E-01
      7.05875381207275E-02   2.36095049648886E-01   3.55636645030457E-16   2.53366666666667E-02   2.53366666666667E-02
      0.00000000000000E+00   0.00000000000000E+00  -1.04034208510936E-02  -4.75812887126447E-03  -1.51615497223581E-02
      2.34086749975477E-16   0.00000000000000E+00   0.00000000000000E+00   0.00000000000000E+00   0.00000000000000E+00
     -1.55104090677065E-01  -6.58294092494631E-02  -2.20933499926528E-01  -8.90542753855448E-17
      4.03242222222222E-03
      1.50000000000000E+00   1.50000000000000E+00   0.00000000000000E+00   0.00000000000000E+00   1.65182667499243E-01
      7.04540839844204E-02   2.35636751483663E-01   3.52180965572746E-16   4.43566444444444E-02   4.43566444444444E-02
      0.00000000000000E+00   0.00000000000000E+00  -1.00648010852402E-02  -4.61868386020873E-03  -1.46834849454489E-02
      2.40927040525954E-16   0.00000000000000E+00   0.00000000000000E+00   0.00000000000000E+00   0.00000000000000E+00
     -1.55117866414003E-01  -6.58354001242124E-02  -2.20953266538216E-01  -8.91298954076336E-17
      6.32634681481481E-03
      1.50000000000000E+00   1.50000000000000E+00   0.00000000000000E+00   0.00000000000000E+00   1.64736638830881E-01
      7.02709267851584E-02   2.35007565616040E-01   3.47360145105066E-16   6.95898149629630E-02   6.95898149629630E-02
      0.00000000000000E+00   0.00000000000000E+00  -9.60113412326305E-03  -4.42787501803146E-03  -1.40290091412945E-02
      2.50549928002508E-16   0.00000000000000E+00   0.00000000000000E+00   0.00000000000000E+00   0.00000000000000E+00
     -1.55135504707626E-01  -6.58430517671346E-02  -2.20978556474760E-01  -8.92267671035037E-17
      9.36962010765432E-03
      1.50000000000000E+00   1.50000000000000E+00   0.00000000000000E+00   0.00000000000000E+00   1.64120847152649E-01
      7.00181961646778E-02   2.34139043317327E-01   3.40550775765919E-16   1.03065821184198E-01   1.03065821184198E-01
      0.00000000000000E+00   0.00000000000000E+00  -8.96351718316191E-03  -4.16571682972833E-03  -1.31292340128902E-02
      2.64300015867634E-16   0.00000000000000E+00   0.00000000000000E+00   0.00000000000000E+00   0.00000000000000E+00
     -1.55157329969561E-01  -6.58524793350279E-02  -2.21009809304589E-01  -8.93467483543790E-17
      1.34070293428214E-02
      1.50000000000000E+00   1.50000000000000E+00   0.00000000000000E+00   0.00000000000000E+00   1.63268275104694E-01
      6.96685130180491E-02   2.32936788122744E-01   3.30802010779527E-16   1.47477322771035E-01   1.47477322771035E-01
      0.00000000000000E+00   0.00000000000000E+00  -8.08587788078893E-03  -3.80529800603316E-03  -1.18911758868221E-02
      2.84302039457338E-16   0.00000000000000E+00   0.00000000000000E+00   0.00000000000000E+00   0.00000000000000E+00
     -1.55182397224620E-01  -6.58632150127887E-02  -2.21045612237409E-01  -8.94848384775322E-17
      1.87633255948097E-02
      1.50000000000000E+00   1.50000000000000E+00   0.00000000000000E+00   0.00000000000000E+00   1.62092409239896E-01
      6.91865993098913E-02   2.31279008549788E-01   3.16662740870285E-16   2.06396581542907E-01   2.06396581542907E-01
      0.00000000000000E+00   0.00000000000000E+00  -6.88628268021059E-03  -3.31345723952579E-03  -1.01997399197364E-02
      3.13955992764061E-16   0.00000000000000E+00   0.00000000000000E+00   0.00000000000000E+00   0.00000000000000E+00
     -1.55206126559686E-01  -6.58731420703655E-02  -2.21079268630051E-01  -8.96163464712961E-17
      2.57443650432345E-02
      1.50000000000000E+00   1.50000000000000E+00   0.00000000000000E+00   0.00000000000000E+00   1.60527004197719E-01
      6.85456803225532E-02   2.29072684520272E-01   2.96338998470070E-16   2.83188015475580E-01   2.83188015475580E-01
      0.00000000000000E+00   0.00000000000000E+00  -5.31213445012132E-03  -2.66960880035750E-03  -7.98174325047882E-03
      3.57843378576741E-16   0.00000000000000E+00   0.00000000000000E+00   0.00000000000000E+00   0.00000000000000E+00
     -1.55214869747598E-01  -6.58760715221957E-02  -2.21090941269793E-01  -8.96673255478989E-17
      3.48429864576815E-02
      1.50000000000000E+00   1.50000000000000E+00   0.00000000000000E+00   0.00000000000000E+00   1.58528958251489E-01
      6.77291274922376E-02   2.26258085743727E-01   2.67122992045401E-16   3.83272851034496E-01   3.83272851034496E-01
      0.00000000000000E+00   0.00000000000000E+00  -3.35134783610574E-03  -1.87113128689479E-03  -5.22247912300053E-03
      4.23232610822375E-16   0.00000000000000E+00   0.00000000000000E+00   0.00000000000000E+00   0.00000000000000E+00
     -1.55177610415385E-01  -6.58579962053436E-02  -2.21035606620729E-01  -8.94694187521459E-17
      4.67015230345107E-02
      1.50000000000000E+00   1.50000000000000E+00   0.00000000000000E+00   0.00000000000000E+00   1.56194110308027E-01
      6.67800669405911E-02   2.22974177248618E-01   2.25936268225467E-16   5.13716753379618E-01   5.13716753379618E-01
      0.00000000000000E+00   0.00000000000000E+00  -1.15952806942199E-03  -9.88056302728008E-04  -2.14758437215000E-03
      5.18706436053375E-16   0.00000000000000E+00   0.00000000000000E+00   0.00000000000000E+00   0.00000000000000E+00
     -1.55034582238696E-01  -6.57920106379185E-02  -2.20826592876614E-01  -8.86968308182793E-17
      6.21571490396448E-02
      1.50000000000000E+00   1.50000000000000E+00   0.00000000000000E+00   0.00000000000000E+00   1.53956322408680E-01
      6.58909220528727E-02   2.19847244461552E-01   1.73402271256763E-16   6.83728639436093E-01   6.83728639436093E-01
      0.00000000000000E+00   0.00000000000000E+00   7.63732395632084E-04  -2.42247137945979E-04   5.21485257686104E-04
      6.41713707885589E-16   0.00000000000000E+00   0.00000000000000E+00   0.00000000000000E+00   0.00000000000000E+00
     -1.54720054804312E-01  -6.56486749149267E-02  -2.20368729719238E-01  -8.69862055752019E-17
      8.19403503262164E-02
      1.50000000000000E+00   1.50000000000000E+00   0.00000000000000E+00   0.00000000000000E+00   1.52693949267029E-01
      6.54597728657018E-02   2.18153722132731E-01   1.34515229093814E-16   9.01343853588381E-01   9.01343853588381E-01
      0.00000000000000E+00   0.00000000000000E+00   1.60592929151711E-03  -1.58456324037577E-06   1.60434472827673E-03
      7.27934102059969E-16   0.00000000000000E+00   0.00000000000000E+00   0.00000000000000E+00   0.00000000000000E+00
     -1.54299878558546E-01  -6.54581883024614E-02  -2.19758066861007E-01  -8.46854637648848E-17
      1.06801239943008E-01
      1.50000000000000E+00   1.50000000000000E+00   0.00000000000000E+00   0.00000000000000E+00   1.51762367037594E-01
      6.52165520520967E-02   2.16978919089691E-01   9.78779936033090E-17   1.17481363937309E+00   1.17481363937309E+00
      0.00000000000000E+00   0.00000000000000E+00   2.00381846875712E-03  -7.46185851026436E-11   2.00381839413853E-03
      7.99103586106543E-16   0.00000000000000E+00   0.00000000000000E+00   0.00000000000000E+00   0.00000000000000E+00
     -1.53766185506351E-01  -6.52165519774782E-02  -2.18982737483829E-01  -8.17430196137922E-17
      1.21842078161167E-01
      1.50000000000000E+00   1.50000000000000E+00   0.00000000000000E+00   0.00000000000000E+00   1.51201394356019E-01
      6.50664310092380E-02   2.16267825365257E-01   6.39061367725253E-17   1.34026285977284E+00   1.34026285977284E+00
      0.00000000000000E+00   0.00000000000000E+00   2.23333586999616E-03  -1.63535851131705E-13   2.23333586983263E-03
      8.60534054987943E-16   0.00000000000000E+00   0.00000000000000E+00   0.00000000000000E+00   0.00000000000000E+00
     -1.53434730226015E-01  -6.50664310090745E-02  -2.18501161235090E-01  -7.99054900647942E-17
      1.40743398188654E-01
      1.50000000000000E+00   1.50000000000000E+00   0.00000000000000E+00   0.00000000000000E+00   1.50530383195691E-01
      6.48854449982166E-02   2.15415828193908E-01  -1.49642425148283E-17   1.54817738007519E+00   1.54817738007519E+00
      0.00000000000000E+00   0.00000000000000E+00   2.50485588606121E-03   2.75958840700571E-15   2.50485588606397E-03
      9.88273031794403E-16   0.00000000000000E+00   0.00000000000000E+00   0.00000000000000E+00   0.00000000000000E+00
     -1.53035239081753E-01  -6.48854449982193E-02  -2.17920684079972E-01  -7.76805425162783E-17
      1.64055026222553E-01
      1.50000000000000E+00   1.50000000000000E+00   0.00000000000000E+00   0.00000000000000E+00   1.49760061932922E-01
      6.46790298495174E-02   2.14439091782440E-01  -5.09170526752761E-16   1.80460528844809E+00   1.80460528844809E+00
      0.00000000000000E+00   0.00000000000000E+00   2.81969427123533E-03   1.53250347117659E-15   2.81969427123686E-03
      1.58361271961474E-15   0.00000000000000E+00   0.00000000000000E+00   0.00000000000000E+00   0.00000000000000E+00
     -1.52579756204158E-01  -6.46790298495190E-02  -2.17258786053677E-01  -7.51302190779752E-17
      1.92806034131030E-01
      1.50000000000000E+00   1.50000000000000E+00   0.00000000000000E+00   0.00000000000000E+00   1.48876453593976E-01
      6.44475536040083E-02   2.13324007197984E-01  -2.87381142840986E-15   2.12086637544133E+00   2.12086637544133E+00
      0.00000000000000E+00   0.00000000000000E+00   3.19268338065223E-03   3.81161333197746E-15   3.19268338065605E-03
      4.19830865681281E-15   0.00000000000000E+00   0.00000000000000E+00   0.00000000000000E+00   0.00000000000000E+00
     -1.52069136974628E-01  -6.44475536040122E-02  -2.16516690578640E-01  -7.22542508756595E-17
      2.28265610551485E-01
      1.50000000000000E+00   1.50000000000000E+00   0.00000000000000E+00   0.00000000000000E+00   1.47873139210183E-01
      6.41886539551114E-02   2.12061793165295E-01  -7.93279782848368E-15   2.51092171606633E+00   2.51092171606633E+00
      0.00000000000000E+00   0.00000000000000E+00   3.62496178239267E-03   4.01437494550394E-13   3.62496178279411E-03
      9.78561604643251E-15   0.00000000000000E+00   0.00000000000000E+00   0.00000000000000E+00   0.00000000000000E+00
     -1.51498100992576E-01  -6.41886539555128E-02  -2.15686754948089E-01  -6.90168824814057E-17
      2.71999088136712E-01
      1.50000000000000E+00   1.50000000000000E+00   0.00000000000000E+00   0.00000000000000E+00   1.46746265199890E-01
      6.39013853709013E-02   2.10647650570791E-01  -1.67072614285812E-14   2.99198996950383E+00   2.99198996950383E+00
      0.00000000000000E+00   0.00000000000000E+00   4.11817762856381E-03   2.09590843565823E-12   4.11817763065972E-03
      1.93917985855050E-14   0.00000000000000E+00   0.00000000000000E+00   0.00000000000000E+00   0.00000000000000E+00
     -1.50864442828453E-01  -6.39013853729973E-02  -2.14765828201451E-01  -6.53986802881495E-17
      3.21999088136712E-01
      1.50000000000000E+00   1.50000000000000E+00   0.00000000000000E+00   0.00000000000000E+00   1.45563227974837E-01
      6.36010608133182E-02   2.09164288788155E-01  -2.90321106345467E-14   3.54198996950383E+00   3.54198996950383E+00
      0.00000000000000E+00   0.00000000000000E+00   4.63897549224976E-03   6.43359940938380E-12   4.63897549868336E-03
      3.28659780408432E-14   0.00000000000000E+00   0.00000000000000E+00   0.00000000000000E+00   0.00000000000000E+00
     -1.50202203467087E-01  -6.36010608197518E-02  -2.13803264286839E-01  -6.15875957359772E-17
      3.71999088136712E-01
      1.50000000000000E+00   1.50000000000000E+00   0.00000000000000E+00   0.00000000000000E+00   1.44487396464484E-01
      6.33292525205166E-02   2.07816648985001E-01  -4.29336358475359E-14   4.09198996950383E+00   4.09198996950383E+00
      0.00000000000000E+00   0.00000000000000E+00   5.11533214663705E-03   4.79030118154960E-15   5.11533214664184E-03
      4.81164912494767E-14   0.00000000000000E+00   0.00000000000000E+00   0.00000000000000E+00   0.00000000000000E+00
     -1.49602728611121E-01  -6.33292525205214E-02  -2.12931981131643E-01  -5.81113900399978E-17
      4.21999088136712E-01
      1.50000000000000E+00   1.50000000000000E+00   0.00000000000000E+00   0.00000000000000E+00   1.43520234698990E-01
      6.30868457044917E-02   2.06607080403481E-01  -5.80802110062786E-14   4.64198996950383E+00   4.64198996950383E+00
      0.00000000000000E+00   0.00000000000000E+00   5.54781887594103E-03   5.62939053458926E-15   5.54781887594666E-03
      6.47203273916007E-14   0.00000000000000E+00   0.00000000000000E+00   0.00000000000000E+00   0.00000000000000E+00
     -1.49068053574931E-01  -6.30868457044973E-02  -2.12154899279428E-01  -5.49903363090547E-17
      4.71999088136712E-01
      1.50000000000000E+00   1.50000000000000E+00   0.00000000000000E+00   0.00000000000000E+00   1.42496784602786E-01
      6.28268006744261E-02   2.05323585277212E-01  -7.33006972936900E-14   5.19198996950383E+00   5.19198996950383E+00
      0.00000000000000E+00   0.00000000000000E+00   5.99826525615575E-03   5.37475022397931E-15   5.99826525616113E-03
      8.13847173905333E-14   0.00000000000000E+00   0.00000000000000E+00   0.00000000000000E+00   0.00000000000000E+00
     -1.48495049858942E-01  -6.28268006744315E-02  -2.11321850533373E-01  -5.16230919684074E-17
      5.21999088136712E-01
      1.50000000000000E+00   1.50000000000000E+00   0.00000000000000E+00   0.00000000000000E+00   1.41540266041111E-01
      6.25822006170426E-02   2.04122466658154E-01  -8.95301500909223E-14   5.74198996950383E+00   5.74198996950383E+00
      0.00000000000000E+00   0.00000000000000E+00   6.41641665544011E-03   6.28243180191030E-15   6.41641665544639E-03
      9.91996254283262E-14   0.00000000000000E+00   0.00000000000000E+00   0.00000000000000E+00   0.00000000000000E+00
     -1.47956682696551E-01  -6.25822006170490E-02  -2.10538883313600E-01  -4.84366326430969E-17
      5.71999088136712E-01
      1.50000000000000E+00   1.50000000000000E+00   0.00000000000000E+00   0.00000000000000E+00   1.40650896188931E-01
      6.23552489007797E-02   2.03006145089711E-01  -1.06363086222675E-13   6.29198996950383E+00   6.29198996950383E+00
      0.00000000000000E+00   0.00000000000000E+00   6.80606425874283E-03   6.90458991943196E-15   6.80606425874974E-03
      1.17747126538764E-13   0.00000000000000E+00   0.00000000000000E+00   0.00000000000000E+00   0.00000000000000E+00
     -1.47456960447674E-01  -6.23552489007866E-02  -2.09812209348460E-01  -4.54602543373961E-17
      6.21999088136712E-01
      1.50000000000000E+00   1.50000000000000E+00   0.00000000000000E+00   0.00000000000000E+00   1.39774025929891E-01
      6.21317414636623E-02   2.01905767393554E-01  -1.23001257775129E-13   6.84198996950383E+00   6.84198996950383E+00
      0.00000000000000E+00   0.00000000000000E+00   7.19020373982915E-03   7.17496315541141E-15   7.19020373983632E-03
      1.36150826955983E-13   0.00000000000000E+00   0.00000000000000E+00   0.00000000000000E+00   0.00000000000000E+00
     -1.46964229669721E-01  -6.21317414636696E-02  -2.09095971133390E-01  -4.25089587237976E-17
      6.71999088136712E-01
      1.50000000000000E+00   1.50000000000000E+00   0.00000000000000E+00   0.00000000000000E+00   1.38975329889279E-01
      6.19284548606716E-02   2.00903784749951E-01  -1.40584255320723E-13   7.39198996950383E+00   7.39198996950383E+00
      0.00000000000000E+00   0.00000000000000E+00   7.54078791913906E-03   7.78047267465847E-15   7.54078791914684E-03
      1.55619831969616E-13   0.00000000000000E+00   0.00000000000000E+00   0.00000000000000E+00   0.00000000000000E+00
     -1.46516117808418E-01  -6.19284548606795E-02  -2.08444572669098E-01  -3.98094718186719E-17
      7.21999088136712E-01
      1.50000000000000E+00   1.50000000000000E+00   0.00000000000000E+00   0.00000000000000E+00   1.38230509313796E-01
      6.17394651979379E-02   1.99969974511734E-01  -1.58709811162598E-13   7.94198996950383E+00   7.94198996950383E+00
      0.00000000000000E+00   0.00000000000000E+00   7.86911512189807E-03   8.45407496084864E-15   7.86911512190652E-03
      1.75696032746992E-13   0.00000000000000E+00   0.00000000000000E+00   0.00000000000000E+00   0.00000000000000E+00
     -1.46099624435694E-01  -6.17394651979464E-02  -2.07839089633640E-01  -3.72875166813072E-17
      7.71999088136712E-01
      1.50000000000000E+00   1.50000000000000E+00   0.00000000000000E+00   0.00000000000000E+00   1.37478230073805E-01
      6.15463484193917E-02   1.99024578493197E-01  -1.76655414428442E-13   8.49198996950383E+00   8.49198996950383E+00
      0.00000000000000E+00   0.00000000000000E+00   8.19632614049506E-03   8.45598954965022E-15   8.19632614050352E-03
      1.95568547498841E-13   0.00000000000000E+00   0.00000000000000E+00   0.00000000000000E+00   0.00000000000000E+00
     -1.45674556214300E-01  -6.15463484194003E-02  -2.07220904633701E-01  -3.47003458788762E-17
      8.21999088136712E-01
      1.50000000000000E+00   1.50000000000000E+00   0.00000000000000E+00   0.00000000000000E+00   1.36652944698061E-01
      6.13303868968327E-02   1.97983331594893E-01  -1.93166313567413E-13   9.04198996950383E+00   9.04198996950383E+00
      0.00000000000000E+00   0.00000000000000E+00   8.54687522497470E-03   9.33237176282497E-15   8.54687522498404E-03
      2.13896232778800E-13   0.00000000000000E+00   0.00000000000000E+00   0.00000000000000E+00   0.00000000000000E+00
     -1.45199819923035E-01  -6.13303868968422E-02  -2.06530206819878E-01  -3.17942458225000E-17
      8.71999088136712E-01
      1.50000000000000E+00   1.50000000000000E+00   0.00000000000000E+00   0.00000000000000E+00   1.35803429907155E-01
      6.11034724457016E-02   1.96906902352856E-01  -2.09392681600003E-13   9.59198996950383E+00   9.59198996950383E+00
      0.00000000000000E+00   0.00000000000000E+00   8.89881369775860E-03   1.00360247689008E-14   8.89881369776864E-03
      2.31934427023826E-13   0.00000000000000E+00   0.00000000000000E+00   0.00000000000000E+00   0.00000000000000E+00
     -1.44702243604913E-01  -6.11034724457118E-02  -2.05805716050625E-01  -2.87264603744718E-17
      9.21999088136712E-01
      1.50000000000000E+00   1.50000000000000E+00   0.00000000000000E+00   0.00000000000000E+00   1.34997054312362E-01
      6.08862642432997E-02   1.95883318555662E-01  -2.26295815521270E-13   1.01419899695038E+01   1.01419899695038E+01