DF-ISE text

Info {
  version   = 1.0
  type      = xyplot
  datasets  = [
    "time"
    "baze OuterVoltage" "baze InnerVoltage" "baze QuasiFermiPotential" "baze DisplacementCurrent" "baze eCurrent"
    "baze hCurrent" "baze TotalCurrent" "baze Charge" "koll_c0 OuterVoltage" "koll_c0 InnerVoltage"
    "koll_c0 QuasiFermiPotential" "koll_c0 DisplacementCurrent" "koll_c0 eCurrent" "koll_c0 hCurrent" "koll_c0 TotalCurrent"
    "koll_c0 Charge" "emit OuterVoltage" "emit InnerVoltage" "emit QuasiFermiPotential" "emit DisplacementCurrent"
    "emit eCurrent" "emit hCurrent" "emit TotalCurrent" "emit Charge" ]
  functions = [
    Time
    OuterVoltage InnerVoltage QuasiFermiPotential DisplacementCurrent eCurrent
    hCurrent TotalCurrent Charge OuterVoltage InnerVoltage
    QuasiFermiPotential DisplacementCurrent eCurrent hCurrent TotalCurrent
    Charge OuterVoltage InnerVoltage QuasiFermiPotential DisplacementCurrent
    eCurrent hCurrent TotalCurrent Charge ]
}

Data {
      0.00000000000000E+00
      0.00000000000000E+00   0.00000000000000E+00   0.00000000000000E+00   0.00000000000000E+00   1.03567918102409E-23
     -1.82040065910567E-21  -1.81004386729543E-21  -6.06289444526481E-13   0.00000000000000E+00   0.00000000000000E+00
      0.00000000000000E+00   0.00000000000000E+00  -1.03568012983314E-23   1.82040089998877E-21   1.81004409869044E-21
      5.07565828987164E-13   0.00000000000000E+00   0.00000000000000E+00   0.00000000000000E+00   0.00000000000000E+00
      2.69597017855223E-30  -2.74605962534141E-28  -2.71909992355589E-28   1.19882219900828E-13
      0.00000000000000E+00
      4.32855061985353E-12   4.32855061985353E-12   0.00000000000000E+00   0.00000000000000E+00  -2.12815070664782E-25
     -2.04180906210799E-24  -2.25462413277277E-24  -6.06289444290086E-13   0.00000000000000E+00   0.00000000000000E+00
      0.00000000000000E+00   0.00000000000000E+00   2.12795518280206E-25   2.04898016381791E-24   2.26177568209811E-24
      5.07565828751301E-13   0.00000000000000E+00   0.00000000000000E+00   0.00000000000000E+00   0.00000000000000E+00
      2.01093143585504E-29  -7.83566324502646E-28  -7.63457010144096E-28   1.19882219900217E-13
      1.00000000000000E-02
      1.00000000042853E-02   1.00000000042853E-02   0.00000000000000E+00   0.00000000000000E+00   5.94671737140116E-17
      2.58628802358448E-17   8.53300539498563E-17  -5.99652642041666E-13   0.00000000000000E+00   0.00000000000000E+00
      0.00000000000000E+00   0.00000000000000E+00  -5.94286376086122E-17  -2.34374394716727E-17  -8.28660770802849E-17
      5.02088255787537E-13   0.00000000000000E+00   0.00000000000000E+00   0.00000000000000E+00   0.00000000000000E+00
     -3.85528147328070E-20  -2.42551670576438E-18  -2.46406952049719E-18   1.18471223989676E-13
      2.30333333333333E-02
      2.30333333375622E-02   2.30333333375622E-02   0.00000000000000E+00   0.00000000000000E+00   1.80779497682369E-16
      7.86687354788252E-17   2.59448233161194E-16  -5.90953000856018E-13   0.00000000000000E+00   0.00000000000000E+00
      0.00000000000000E+00   0.00000000000000E+00  -1.80662341084972E-16  -7.13123314030794E-17  -2.51974672488051E-16
      4.94892625202195E-13   0.00000000000000E+00   0.00000000000000E+00   0.00000000000000E+00   0.00000000000000E+00
     -1.17168725046565E-19  -7.35672840332907E-18  -7.47389712837563E-18   1.16632193359814E-13
      4.03242222222222E-02
      4.03242222263762E-02   4.03242222263762E-02   0.00000000000000E+00   0.00000000000000E+00   4.71877394625678E-16
      2.05533416049638E-16   6.77410810675316E-16  -5.79322982126069E-13   0.00000000000000E+00   0.00000000000000E+00
      0.00000000000000E+00   0.00000000000000E+00  -4.71571724850374E-16  -1.86390700691678E-16  -6.57962425542052E-16
      4.85250472407508E-13   0.00000000000000E+00   0.00000000000000E+00   0.00000000000000E+00   0.00000000000000E+00
     -3.05683985559111E-19  -1.91432645302934E-17  -1.94489485158526E-17   1.14192356050774E-13
      6.32634681481481E-02
      6.32634681522029E-02   6.32634681522029E-02   0.00000000000000E+00   0.00000000000000E+00   1.32310790624291E-15
      5.77065954882913E-16   1.90017386112582E-15  -5.63733575275464E-13   0.00000000000000E+00   0.00000000000000E+00
      0.00000000000000E+00   0.00000000000000E+00  -1.32225147207382E-15  -5.23625143644788E-16  -1.84587661571861E-15
      4.72291406304956E-13   0.00000000000000E+00   0.00000000000000E+00   0.00000000000000E+00   0.00000000000000E+00
     -8.56473709297165E-19  -5.34412532286805E-17  -5.42977269379776E-17   1.10955406191320E-13
      9.36962010765432E-02
      9.36962010804662E-02   9.36962010804662E-02   0.00000000000000E+00   0.00000000000000E+00   4.56902256308619E-15
      1.99832073602825E-15   6.56734329911444E-15  -5.42757162820498E-13   0.00000000000000E+00   0.00000000000000E+00
      0.00000000000000E+00   0.00000000000000E+00  -4.56606887231308E-15  -1.81502730816964E-15  -6.38109618048273E-15
      4.54799519149845E-13   0.00000000000000E+00   0.00000000000000E+00   0.00000000000000E+00   0.00000000000000E+00
     -2.95372161705897E-18  -1.83293681637765E-16  -1.86247403254824E-16   1.06660880069826E-13
      1.34070293428214E-01
      1.34070293431962E-01   1.34070293431962E-01   0.00000000000000E+00   0.00000000000000E+00   2.22560893683512E-14
      9.83675653796091E-15   3.20928459063121E-14  -5.14373211218726E-13   0.00000000000000E+00   0.00000000000000E+00
      0.00000000000000E+00   0.00000000000000E+00  -2.22417451754872E-14  -8.95387508586886E-15  -3.11956202613560E-14
      4.31035718265348E-13   0.00000000000000E+00   0.00000000000000E+00   0.00000000000000E+00   0.00000000000000E+00
     -1.43441976371786E-17  -8.82881542612853E-16  -8.97225740250031E-16   1.00963175355983E-13
      1.87633255948097E-01
      1.87633255951614E-01   1.87633255951614E-01   0.00000000000000E+00   0.00000000000000E+00   1.77332676901401E-13
      7.70704325937858E-14   2.54403109495186E-13  -4.75621289479506E-13   0.00000000000000E+00   0.00000000000000E+00
      0.00000000000000E+00   0.00000000000000E+00  -1.77218647604534E-13  -7.01321314171104E-14  -2.47350779021644E-13
      3.98412562130995E-13   0.00000000000000E+00   0.00000000000000E+00   0.00000000000000E+00   0.00000000000000E+00
     -1.14029296867184E-16  -6.93830117667360E-15  -7.05233047354079E-15   9.34037009814505E-14
      2.57443650432345E-01
      2.57443650435559E-01   2.57443650435559E-01   0.00000000000000E+00   0.00000000000000E+00   2.64101493865570E-12
      1.14485926510308E-12   3.78587420375878E-12  -4.22851738250079E-13   0.00000000000000E+00   0.00000000000000E+00
      0.00000000000000E+00   0.00000000000000E+00  -2.63932568374686E-12  -1.04364081869543E-12  -3.68296650244229E-12
      3.53631430573610E-13   0.00000000000000E+00   0.00000000000000E+00   0.00000000000000E+00   0.00000000000000E+00
     -1.68925490885142E-15  -1.01218446407772E-13  -1.02907701316624E-13   8.35503158269918E-14
      3.48429864576815E-01
      3.48429864579635E-01   3.48429864579635E-01   0.00000000000000E+00   0.00000000000000E+00   8.91685403167743E-11
      3.85100459190291E-11   1.27678586235804E-10  -3.48925655325042E-13   0.00000000000000E+00   0.00000000000000E+00
      0.00000000000000E+00   0.00000000000000E+00  -8.91119370832415E-11  -3.51899192783813E-11  -1.24301856361623E-10
      2.90118331164307E-13   0.00000000000000E+00   0.00000000000000E+00   0.00000000000000E+00   0.00000000000000E+00
     -5.66032353325055E-14  -3.32012665659095E-12  -3.37672989192346E-12   7.07066332738518E-14
      4.67015230345107E-01
      4.67015230347414E-01   4.67015230347414E-01   0.00000000000000E+00   0.00000000000000E+00   8.75208394376097E-09
      3.75796079193373E-09   1.25100447356947E-08  -2.38841335619816E-13   0.00000000000000E+00   0.00000000000000E+00
      0.00000000000000E+00   0.00000000000000E+00  -8.74597342099438E-09  -3.44521818141210E-09  -1.21911916024065E-08
      1.93608255229790E-13   0.00000000000000E+00   0.00000000000000E+00   0.00000000000000E+00   0.00000000000000E+00
     -6.11052276661072E-12  -3.12742610521839E-10  -3.18853133288449E-10   5.39647274670503E-14
      6.18804498528521E-01
      6.18804498530171E-01   6.18804498530171E-01   0.00000000000000E+00   0.00000000000000E+00   2.84385208642835E-06
      1.25133412366097E-06   4.09518621008933E-06  -8.03536725282186E-14   0.00000000000000E+00   0.00000000000000E+00
      0.00000000000000E+00   0.00000000000000E+00  -2.77795729564140E-06  -1.14736040855452E-06  -3.92531770419592E-06
      5.25825957003663E-14   0.00000000000000E+00   0.00000000000000E+00   0.00000000000000E+00   0.00000000000000E+00
     -6.58947907869528E-08  -1.03973715106450E-07  -1.69868505893402E-07   3.25471078689318E-14
      7.15949630165906E-01
      7.15949630167135E-01   7.15949630167135E-01   0.00000000000000E+00   0.00000000000000E+00   5.68896789747297E-05
      2.87794101737363E-05   8.56690891484660E-05  -3.12831134882965E-14   0.00000000000000E+00   0.00000000000000E+00
      0.00000000000000E+00   0.00000000000000E+00  -4.28202271814245E-05  -2.47533818769088E-05  -6.75736090583333E-05
      1.51919697600329E-14   0.00000000000000E+00   0.00000000000000E+00   0.00000000000000E+00   0.00000000000000E+00
     -1.40694517933218E-05  -4.02602829687513E-06  -1.80954800901969E-05   1.91045587448627E-14
      8.38028678923553E-01
      8.38028678924254E-01   8.38028678924254E-01   0.00000000000000E+00   0.00000000000000E+00   1.04268347960086E-03
      4.48066121029774E-04   1.49074960063064E-03  -8.69513587759120E-15   0.00000000000000E+00   0.00000000000000E+00
      0.00000000000000E+00   0.00000000000000E+00  -3.72572450142199E-04  -2.37842636259959E-04  -6.10415086402158E-04
      3.85323157010404E-15   0.00000000000000E+00   0.00000000000000E+00   0.00000000000000E+00   0.00000000000000E+00
     -6.70111029458664E-04  -2.10223484769814E-04  -8.80334514228479E-04   6.42546865809310E-15
      9.88592839057984E-01
      9.88592839058034E-01   9.88592839058034E-01   0.00000000000000E+00   0.00000000000000E+00   1.02761225527838E-02
      4.22103617824967E-03   1.44971587310334E-02  -2.42873344775463E-15   0.00000000000000E+00   0.00000000000000E+00
      0.00000000000000E+00   0.00000000000000E+00  -1.75435118193825E-03  -9.57346175529504E-04  -2.71169735746776E-03
      1.32635957566710E-15   0.00000000000000E+00   0.00000000000000E+00   0.00000000000000E+00   0.00000000000000E+00
     -8.52177137084557E-03  -3.26369000272019E-03  -1.17854613735658E-02   1.89860367472747E-15
      1.00000000000000E+00
      1.00000000000000E+00   1.00000000000000E+00   0.00000000000000E+00   0.00000000000000E+00   1.16201925325006E-02
      4.77508303233434E-03   1.63952755648349E-02  -2.24519284893476E-15   0.00000000000000E+00   0.00000000000000E+00
      0.00000000000000E+00   0.00000000000000E+00  -1.90595559092359E-03  -1.03024676225750E-03  -2.93620235318109E-03
      1.24492683659747E-15   0.00000000000000E+00   0.00000000000000E+00   0.00000000000000E+00   0.00000000000000E+00
     -9.71423694158171E-03  -3.74483627007913E-03  -1.34590732116608E-02   1.76692505674739E-15
      1.00000000000000E-03
      1.00000000000000E+00   1.00000000000000E+00   0.00000000000000E+00   0.00000000000000E+00   1.14784047519344E-02
      4.71152999853788E-03   1.61899347504723E-02  -2.25359985797497E-15   1.10000000000000E-02   1.10000000000000E-02
      0.00000000000000E+00   0.00000000000000E+00  -1.75187381728066E-03  -9.61672149597602E-04  -2.71354596687826E-03
      1.25991327648437E-15   0.00000000000000E+00   0.00000000000000E+00   0.00000000000000E+00   0.00000000000000E+00
     -9.72653093517718E-03  -3.74985784931774E-03  -1.34763887844949E-02   1.76532314438798E-15
      2.30333333333333E-03
      1.00000000000000E+00   1.00000000000000E+00   0.00000000000000E+00   0.00000000000000E+00   1.13013293762303E-02
      4.63198935842472E-03   1.59333187346550E-02  -2.26498919611995E-15   2.53366666666667E-02   2.53366666666667E-02
      0.00000000000000E+00   0.00000000000000E+00  -1.55953642290521E-03  -8.75918037974474E-04  -2.43545446087968E-03
      1.28012383251439E-15   0.00000000000000E+00   0.00000000000000E+00   0.00000000000000E+00   0.00000000000000E+00
     -9.74179295332453E-03  -3.75607132045067E-03  -1.34978642737752E-02   1.76334589948144E-15
      4.03242222222222E-03
      1.00000000000000E+00   1.00000000000000E+00   0.00000000000000E+00   0.00000000000000E+00   1.10801026371523E-02
      4.53236637744327E-03   1.56124690145956E-02  -2.28087647453411E-15   4.43566444444444E-02   4.43566444444444E-02
      0.00000000000000E+00   0.00000000000000E+00  -1.31947894776098E-03  -7.68670004944631E-04  -2.08814895270561E-03
      1.30813188865482E-15   0.00000000000000E+00   0.00000000000000E+00   0.00000000000000E+00   0.00000000000000E+00
     -9.76062368938784E-03  -3.76369637250198E-03  -1.35243200618898E-02   1.76092647192901E-15
      6.32634681481481E-03
      1.00000000000000E+00   1.00000000000000E+00   0.00000000000000E+00   0.00000000000000E+00   1.08109390448042E-02
      4.41085115420213E-03   1.52217901990063E-02  -2.30336842409494E-15   6.95898149629630E-02   6.95898149629630E-02
      0.00000000000000E+00   0.00000000000000E+00  -1.02800401420419E-03  -6.38206864664759E-04  -1.66621087886895E-03
      1.34740005156164E-15   0.00000000000000E+00   0.00000000000000E+00   0.00000000000000E+00   0.00000000000000E+00
     -9.78293503058530E-03  -3.77264428956176E-03  -1.35555793201471E-02   1.75809616107050E-15
      9.36962010765432E-03
      1.00000000000000E+00   1.00000000000000E+00   0.00000000000000E+00   0.00000000000000E+00   1.04964041946275E-02
      4.26869519536743E-03   1.47650993899949E-02  -2.33578050742532E-15   1.03065821184198E-01   1.03065821184198E-01
      0.00000000000000E+00   0.00000000000000E+00  -6.88879517270313E-04  -4.86375765062822E-04  -1.17525528233313E-03
      1.40315978279962E-15   0.00000000000000E+00   0.00000000000000E+00   0.00000000000000E+00   0.00000000000000E+00
     -9.80752467739072E-03  -3.78231943045484E-03  -1.35898441078456E-02   1.75504385158958E-15
      1.34070293428214E-02
      1.00000000000000E+00   1.00000000000000E+00   0.00000000000000E+00   0.00000000000000E+00   1.01509540274051E-02
      4.11334220830742E-03   1.42642962357125E-02  -2.38338256458462E-15   1.47477322771035E-01   1.47477322771035E-01
      0.00000000000000E+00   0.00000000000000E+00  -3.19952863171392E-04  -3.22199778953838E-04  -6.42152642125231E-04
      1.48321274257440E-15   0.00000000000000E+00   0.00000000000000E+00   0.00000000000000E+00   0.00000000000000E+00
     -9.83100116423370E-03  -3.79114242935358E-03  -1.36221435935873E-02   1.75225946241278E-15
      1.86691193793225E-02
      1.00000000000000E+00   1.00000000000000E+00   0.00000000000000E+00   0.00000000000000E+00   9.81063814268128E-03
      3.96423814276910E-03   1.37748762854504E-02  -2.45294547487443E-15   2.05360313172547E-01   2.05360313172547E-01
      0.00000000000000E+00   0.00000000000000E+00   3.58282945784427E-05  -1.68225297690509E-04  -1.32397003112066E-04
      1.59623833796303E-15   0.00000000000000E+00   0.00000000000000E+00   0.00000000000000E+00   0.00000000000000E+00
     -9.84646643725972E-03  -3.79601284507859E-03  -1.36424792823383E-02   1.75069544658275E-15
      2.55273767268956E-02
      1.00000000000000E+00   1.00000000000000E+00   0.00000000000000E+00   0.00000000000000E+00   9.51574722492040E-03
      3.84680592467387E-03   1.33625531495943E-02  -2.55298653185687E-15   2.80801143995851E-01   2.80801143995851E-01
      0.00000000000000E+00   0.00000000000000E+00   3.29343607313014E-04  -5.37991901943916E-05   2.75544417118622E-04
      1.75102016499036E-15   0.00000000000000E+00   0.00000000000000E+00   0.00000000000000E+00   0.00000000000000E+00
     -9.84509083223347E-03  -3.79300673447956E-03  -1.36380975667130E-02   1.75155568764694E-15
      3.44659721365659E-02
      1.00000000000000E+00   1.00000000000000E+00   0.00000000000000E+00   0.00000000000000E+00   9.29171840278710E-03
      3.78345799139395E-03   1.30751763941811E-02  -2.69046315001106E-15   3.79125693502224E-01   3.79125693502224E-01
      0.00000000000000E+00   0.00000000000000E+00   5.27087648383859E-04  -4.87471732247441E-06   5.22212931061385E-04
      1.95081556729116E-15   0.00000000000000E+00   0.00000000000000E+00   0.00000000000000E+00   0.00000000000000E+00
     -9.81880605117097E-03  -3.77858327407149E-03  -1.35973893252425E-02   1.75595449207503E-15
      4.59073742609438E-02
      1.00000000000000E+00   1.00000000000000E+00   0.00000000000000E+00   0.00000000000000E+00   9.09537421583514E-03
      3.75412759227789E-03   1.28495018081130E-02  -2.94881895547724E-15   5.04981116870382E-01   5.04981116870382E-01
      0.00000000000000E+00   0.00000000000000E+00   6.75659704439398E-04  -5.86760699273382E-08   6.75601028369470E-04
      2.29744151631650E-15   0.00000000000000E+00   0.00000000000000E+00   0.00000000000000E+00   0.00000000000000E+00
     -9.77103392027454E-03  -3.75406891620796E-03  -1.35251028364825E-02   1.76354288833898E-15
      6.02854029305787E-02
      1.00000000000000E+00   1.00000000000000E+00   0.00000000000000E+00   0.00000000000000E+00   8.87353020441515E-03
      3.72479790007572E-03   1.25983281044909E-02  -3.98475510139970E-15   6.63139432236366E-01   6.63139432236366E-01
      0.00000000000000E+00   0.00000000000000E+00   8.40853195862351E-04  -1.59516471737221E-10   8.40853036345879E-04
      3.53846554629165E-15   0.00000000000000E+00   0.00000000000000E+00   0.00000000000000E+00   0.00000000000000E+00
     -9.71438340027751E-03  -3.72479774055926E-03  -1.34391811408368E-02   1.77271806429019E-15
      7.83537922920867E-02
      1.00000000000000E+00   1.00000000000000E+00   0.00000000000000E+00   0.00000000000000E+00   8.61983159383425E-03
      3.69170285758110E-03   1.23115344514154E-02  -8.17073454066543E-15   8.61891715212953E-01   8.61891715212953E-01
      0.00000000000000E+00   0.00000000000000E+00   1.03172130477795E-03  -8.70710764118770E-14   1.03172130469088E-03
      8.15467085885288E-15   0.00000000000000E+00   0.00000000000000E+00   0.00000000000000E+00   0.00000000000000E+00
     -9.65155289861220E-03  -3.69170285749403E-03  -1.33432557561062E-02   1.78323411805717E-15
      1.01059734923048E-01
      1.00000000000000E+00   1.00000000000000E+00   0.00000000000000E+00   0.00000000000000E+00   8.33155732424370E-03
      3.65356614532123E-03   1.19851234695649E-02  -1.79261045611789E-14   1.11165708415353E+00   1.11165708415353E+00
      0.00000000000000E+00   0.00000000000000E+00   1.24925673186677E-03   1.21890631192673E-15   1.24925673186799E-03
      1.86173179113169E-14   0.00000000000000E+00   0.00000000000000E+00   0.00000000000000E+00   0.00000000000000E+00
     -9.58081405611048E-03  -3.65356614532245E-03  -1.32343802014329E-02   1.79554301564109E-15
      1.29593536162623E-01
      1.00000000000000E+00   1.00000000000000E+00   0.00000000000000E+00   0.00000000000000E+00   7.99923069312471E-03
      3.60819201140587E-03   1.16074227045306E-02  -3.41771694893134E-14   1.42552889778886E+00   1.42552889778886E+00
      0.00000000000000E+00   0.00000000000000E+00   1.49979134212881E-03   6.50693814964323E-15   1.49979134213531E-03
      3.59155290994646E-14   0.00000000000000E+00   0.00000000000000E+00   0.00000000000000E+00   0.00000000000000E+00
     -9.49902203525351E-03  -3.60819201141237E-03  -1.31072140466659E-02   1.81046133020881E-15
      1.65451013053689E-01
      1.00000000000000E+00   1.00000000000000E+00   0.00000000000000E+00   0.00000000000000E+00   7.61729519964514E-03
      3.55361472475780E-03   1.11709099244029E-02  -5.79327088946669E-14   1.81996114359058E+00   1.81996114359058E+00
      0.00000000000000E+00   0.00000000000000E+00   1.78626831667853E-03   1.44285597215485E-15   1.78626831667998E-03
      6.11926173966712E-14   0.00000000000000E+00   0.00000000000000E+00   0.00000000000000E+00   0.00000000000000E+00
     -9.40356351632367E-03  -3.55361472475924E-03  -1.29571782410829E-02   1.82881976811573E-15
      2.09675234552671E-01
      1.00000000000000E+00   1.00000000000000E+00   0.00000000000000E+00   0.00000000000000E+00   7.17102271586249E-03
      3.48576212190432E-03   1.06567848377668E-02  -8.91105784194111E-14   2.30642758007938E+00   2.30642758007938E+00
      0.00000000000000E+00   0.00000000000000E+00   2.11864626812879E-03   1.71328123500390E-15   2.11864626813050E-03
      9.44276417940161E-14   0.00000000000000E+00   0.00000000000000E+00   0.00000000000000E+00   0.00000000000000E+00
     -9.28966898399129E-03  -3.48576212190603E-03  -1.27754311058973E-02   1.85230318037661E-15
      2.59058948559867E-01
      1.00000000000000E+00   1.00000000000000E+00   0.00000000000000E+00   0.00000000000000E+00   6.71062072698259E-03
      3.41104473892756E-03   1.01216654659101E-02  -1.25679855870095E-13   2.84964843415854E+00   2.84964843415854E+00
      0.00000000000000E+00   0.00000000000000E+00   2.45765492326165E-03   2.10244742235955E-15   2.45765492326375E-03
      1.33566518082987E-13   0.00000000000000E+00   0.00000000000000E+00   0.00000000000000E+00   0.00000000000000E+00
     -9.16827565024425E-03  -3.41104473892967E-03  -1.25793203891739E-02   1.87907703295131E-15
      3.09058948559867E-01
      1.00000000000000E+00   1.00000000000000E+00   0.00000000000000E+00   0.00000000000000E+00   6.26807592922452E-03
      3.33396365393493E-03   9.60203958315944E-03  -1.63275763173372E-13   3.39964843415854E+00   3.39964843415854E+00
      0.00000000000000E+00   0.00000000000000E+00   2.78069999065386E-03   2.41434330297323E-15   2.78069999065627E-03
      1.73913300044684E-13   0.00000000000000E+00   0.00000000000000E+00   0.00000000000000E+00   0.00000000000000E+00
     -9.04877591987840E-03  -3.33396365393734E-03  -1.23827395738157E-02   1.90776272327833E-15
      3.59058948559867E-01
      1.00000000000000E+00   1.00000000000000E+00   0.00000000000000E+00   0.00000000000000E+00   5.83269333924328E-03
      3.25226962420774E-03   9.08496296345103E-03  -2.00961117657901E-13   3.94964843415854E+00   3.94964843415854E+00
      0.00000000000000E+00   0.00000000000000E+00   3.09408459867106E-03   2.82573016633851E-15   3.09408459867389E-03
      2.14521022728148E-13   0.00000000000000E+00   0.00000000000000E+00   0.00000000000000E+00   0.00000000000000E+00
     -8.92677793791435E-03  -3.25226962421057E-03  -1.21790475621249E-02   1.93947052590171E-15
      4.09058948559867E-01
      1.00000000000000E+00   1.00000000000000E+00   0.00000000000000E+00   0.00000000000000E+00   5.42413848554399E-03
      3.17132329483280E-03   8.59546178037679E-03  -2.39382248553836E-13   4.49964843415854E+00   4.49964843415854E+00
      0.00000000000000E+00   0.00000000000000E+00   3.38366262058463E-03   3.11944265602415E-15   3.38366262058775E-03
      2.56075411533430E-13   0.00000000000000E+00   0.00000000000000E+00   0.00000000000000E+00   0.00000000000000E+00
     -8.80780110612862E-03  -3.17132329483592E-03  -1.19791244009645E-02   1.97228789058203E-15
      4.59058948559867E-01
      1.00000000000000E+00   1.00000000000000E+00   0.00000000000000E+00   0.00000000000000E+00   5.03653013230934E-03
      3.08970270717667E-03   8.12623283948601E-03  -2.78224295415062E-13   5.04964843415854E+00   5.04964843415854E+00
      0.00000000000000E+00   0.00000000000000E+00   3.65597952746476E-03   3.33974523269275E-15   3.65597952746810E-03
      2.98185254387565E-13   0.00000000000000E+00   0.00000000000000E+00   0.00000000000000E+00   0.00000000000000E+00
     -8.69250965977410E-03  -3.08970270718000E-03  -1.17822123669541E-02   2.00692233123754E-15
      5.09058948559867E-01
      1.00000000000000E+00   1.00000000000000E+00   0.00000000000000E+00   0.00000000000000E+00   4.64037211453725E-03
      2.99985760458031E-03   7.64022971911755E-03  -3.15745726712541E-13   5.59964843415854E+00   5.59964843415854E+00
      0.00000000000000E+00   0.00000000000000E+00   3.93226227056979E-03   3.61462399558026E-15   3.93226227057340E-03
      3.38995750866888E-13   0.00000000000000E+00   0.00000000000000E+00   0.00000000000000E+00   0.00000000000000E+00
     -8.57263438510703E-03  -2.99985760458392E-03  -1.15724919896910E-02   2.04706052604298E-15
      5.59058948559867E-01
      1.00000000000000E+00   1.00000000000000E+00   0.00000000000000E+00   0.00000000000000E+00   4.25849157040805E-03
      2.90833799615128E-03   7.16682956655934E-03  -3.54127562364133E-13   6.14964843415854E+00   6.14964843415854E+00
      0.00000000000000E+00   0.00000000000000E+00   4.19180316649460E-03   3.93202952168543E-15   4.19180316649853E-03
      3.80909543924244E-13   0.00000000000000E+00   0.00000000000000E+00   0.00000000000000E+00   0.00000000000000E+00
     -8.45029473690266E-03  -2.90833799615522E-03  -1.13586327330579E-02   2.09028303709242E-15
      6.09058948559867E-01
      1.00000000000000E+00   1.00000000000000E+00   0.00000000000000E+00   0.00000000000000E+00   3.89697974685410E-03
      2.81750171043071E-03   6.71448145728481E-03  -3.93552725627098E-13   6.69964843415854E+00   6.69964843415854E+00
      0.00000000000000E+00   0.00000000000000E+00   4.43213929725323E-03   4.11302059567814E-15   4.43213929725734E-03
      4.24067091030469E-13   0.00000000000000E+00   0.00000000000000E+00   0.00000000000000E+00   0.00000000000000E+00
     -8.32911904410733E-03  -2.81750171043483E-03  -1.11466207545422E-02   2.13563816655487E-15
      6.59058948559867E-01
      1.00000000000000E+00   1.00000000000000E+00   0.00000000000000E+00   0.00000000000000E+00   3.53472994221580E-03
      2.72071404108136E-03   6.25544398329716E-03  -4.32494230612512E-13   7.24964843415854E+00   7.24964843415854E+00
      0.00000000000000E+00   0.00000000000000E+00   4.66895077865384E-03   4.40760713677320E-15   4.66895077865825E-03
      4.66789063869445E-13   0.00000000000000E+00   0.00000000000000E+00   0.00000000000000E+00   0.00000000000000E+00
     -8.20368072086963E-03  -2.72071404108577E-03  -1.09243947619554E-02   2.18700252674061E-15
      7.09058948559867E-01
      1.00000000000000E+00   1.00000000000000E+00   0.00000000000000E+00   0.00000000000000E+00   3.17997477895475E-03
      2.61905742489023E-03   5.79903220384499E-03  -4.71527671802777E-13   7.79964843415854E+00   7.79964843415854E+00
      0.00000000000000E+00   0.00000000000000E+00   4.89917630664675E-03   4.65704476042234E-15   4.89917630665141E-03
      5.09729134827516E-13   0.00000000000000E+00   0.00000000000000E+00   0.00000000000000E+00   0.00000000000000E+00
     -8.07915108560150E-03  -2.61905742489489E-03  -1.06982085104964E-02   2.24497807392015E-15
      7.59058948559867E-01
      1.00000000000000E+00   1.00000000000000E+00   0.00000000000000E+00   0.00000000000000E+00   2.82650489835513E-03
      2.51209176916263E-03   5.33859666751777E-03  -5.11258035711384E-13   8.34964843415854E+00   8.34964843415854E+00
      0.00000000000000E+00   0.00000000000000E+00   5.11826861308212E-03   4.92910366697709E-15   5.11826861308705E-03
      5.53600306944382E-13   0.00000000000000E+00   0.00000000000000E+00   0.00000000000000E+00   0.00000000000000E+00
     -7.94477351143725E-03  -2.51209176916756E-03  -1.04568652806048E-02   2.31039981114883E-15
      8.09058948559867E-01
      1.00000000000000E+00   1.00000000000000E+00   0.00000000000000E+00   0.00000000000000E+00   2.47210367867797E-03
      2.39727564029361E-03   4.86937931897158E-03  -5.51731384797665E-13   8.89964843415854E+00   8.89964843415854E+00
      0.00000000000000E+00   0.00000000000000E+00   5.32627123147518E-03   5.13931823362867E-15   5.32627123148032E-03
      5.98428424995580E-13   0.00000000000000E+00   0.00000000000000E+00   0.00000000000000E+00   0.00000000000000E+00
     -7.79837491015316E-03  -2.39727564029875E-03  -1.01956505504519E-02   2.38648669512343E-15
      8.59058948559867E-01
      1.00000000000000E+00   1.00000000000000E+00   0.00000000000000E+00   0.00000000000000E+00   2.12806372003688E-03
      2.27656681723076E-03   4.40463053726764E-03  -5.92837359344073E-13   9.44964843415854E+00   9.44964843415854E+00
      0.00000000000000E+00   0.00000000000000E+00   5.52655746517906E-03   5.36875672860045E-15   5.52655746518443E-03
      6.44105687697470E-13   0.00000000000000E+00   0.00000000000000E+00   0.00000000000000E+00   0.00000000000000E+00
     -7.65462118521594E-03  -2.27656681723613E-03  -9.93118800245207E-03   2.47478597265045E-15
      9.09058948559867E-01
      1.00000000000000E+00   1.00000000000000E+00   0.00000000000000E+00   0.00000000000000E+00   1.78777518283308E-03
      2.14604841513316E-03   3.93382359796624E-03  -6.35692513286913E-13   9.99964843415854E+00   9.99964843415854E+00
      0.00000000000000E+00   0.00000000000000E+00   5.71847905654322E-03   5.57727001661585E-15   5.71847905654879E-03
      6.91931485692496E-13   0.00000000000000E+00   0.00000000000000E+00   0.00000000000000E+00   0.00000000000000E+00
     -7.50625423937630E-03  -2.14604841513874E-03  -9.65230265451504E-03   2.58167935425741E-15
      9.59058948559867E-01
      1.00000000000000E+00   1.00000000000000E+00   0.00000000000000E+00   0.00000000000000E+00   1.45719655821830E-03
      2.00668232537846E-03   3.46387888359677E-03  -6.95819267311042E-13   1.05496484341585E+01   1.05496484341585E+01
      0.00000000000000E+00   0.00000000000000E+00   5.90076731590994E-03   5.79715637832758E-15   5.90076731591573E-03
      7.58098827355466E-13   0.00000000000000E+00   0.00000000000000E+00   0.00000000000000E+00   0.00000000000000E+00
     -7.35796387412824E-03  -2.00668232538426E-03  -9.36464619951250E-03   2.71211319163469E-15
      1.00000000000000E+00
      1.00000000000000E+00   1.00000000000000E+00   0.00000000000000E+00   0.00000000000000E+00   1.19254148945765E-03
      1.88370879593420E-03   3.07625028539185E-03  -7.88510138274851E-13   1.10000000000000E+01   1.10000000000000E+01