DF-ISE text

Info {
  version   = 1.0
  type      = xyplot
  datasets  = [
    "time"
    "baze OuterVoltage" "baze InnerVoltage" "baze QuasiFermiPotential" "baze DisplacementCurrent" "baze eCurrent"
    "baze hCurrent" "baze TotalCurrent" "baze Charge" "koll_c0 OuterVoltage" "koll_c0 InnerVoltage"
    "koll_c0 QuasiFermiPotential" "koll_c0 DisplacementCurrent" "koll_c0 eCurrent" "koll_c0 hCurrent" "koll_c0 TotalCurrent"
    "koll_c0 Charge" "emit OuterVoltage" "emit InnerVoltage" "emit QuasiFermiPotential" "emit DisplacementCurrent"
    "emit eCurrent" "emit hCurrent" "emit TotalCurrent" "emit Charge" ]
  functions = [
    Time
    OuterVoltage InnerVoltage QuasiFermiPotential DisplacementCurrent eCurrent
    hCurrent TotalCurrent Charge OuterVoltage InnerVoltage
    QuasiFermiPotential DisplacementCurrent eCurrent hCurrent TotalCurrent
    Charge OuterVoltage InnerVoltage QuasiFermiPotential DisplacementCurrent
    eCurrent hCurrent TotalCurrent Charge ]
}

Data {
      0.00000000000000E+00
      0.00000000000000E+00   0.00000000000000E+00   0.00000000000000E+00   0.00000000000000E+00   1.03567918102409E-23
     -1.82040065910567E-21  -1.81004386729543E-21  -6.06289444526481E-13   0.00000000000000E+00   0.00000000000000E+00
      0.00000000000000E+00   0.00000000000000E+00  -1.03568012983314E-23   1.82040089998877E-21   1.81004409869044E-21
      5.07565828987164E-13   0.00000000000000E+00   0.00000000000000E+00   0.00000000000000E+00   0.00000000000000E+00
      2.69597017855223E-30  -2.74605962534141E-28  -2.71909992355589E-28   1.19882219900828E-13
      0.00000000000000E+00
      4.32855061985353E-12   4.32855061985353E-12   0.00000000000000E+00   0.00000000000000E+00  -2.12815070664782E-25
     -2.04180906210799E-24  -2.25462413277277E-24  -6.06289444290086E-13   0.00000000000000E+00   0.00000000000000E+00
      0.00000000000000E+00   0.00000000000000E+00   2.12795518280206E-25   2.04898016381791E-24   2.26177568209811E-24
      5.07565828751301E-13   0.00000000000000E+00   0.00000000000000E+00   0.00000000000000E+00   0.00000000000000E+00
      2.01093143585504E-29  -7.83566324502646E-28  -7.63457010144096E-28   1.19882219900217E-13
      1.00000000000000E-02
      2.00000000042853E-02   2.00000000042853E-02   0.00000000000000E+00   0.00000000000000E+00   1.46881465853870E-16
      6.39062111232274E-17   2.10787676977097E-16  -5.92982793003754E-13   0.00000000000000E+00   0.00000000000000E+00
      0.00000000000000E+00   0.00000000000000E+00  -1.46786260043735E-16  -5.79256691618144E-17  -2.04711929205549E-16
      4.96572920805219E-13   0.00000000000000E+00   0.00000000000000E+00   0.00000000000000E+00   0.00000000000000E+00
     -9.52062797657281E-20  -5.98051442468855E-18  -6.07572070445427E-18   1.17060206333745E-13
      2.28000000000000E-02
      4.56000000042299E-02   4.56000000042299E-02   0.00000000000000E+00   0.00000000000000E+00   6.06902640180508E-16
      2.65206523465196E-16   8.72109163645704E-16  -5.75753974747447E-13   0.00000000000000E+00   0.00000000000000E+00
      0.00000000000000E+00   0.00000000000000E+00  -6.06510570753739E-16  -2.40623130659915E-16  -8.47133701413654E-16
      4.82286920217678E-13   0.00000000000000E+00   0.00000000000000E+00   0.00000000000000E+00   0.00000000000000E+00
     -3.93066862569969E-19  -2.45957076657366E-17  -2.49887745283066E-17   1.13447902658444E-13
      3.97813333333333E-02
      7.95626666708230E-02   7.95626666708230E-02   0.00000000000000E+00   0.00000000000000E+00   2.59420116321500E-15
      1.14414727805063E-15   3.73834844126563E-15  -5.52541867592099E-13   0.00000000000000E+00   0.00000000000000E+00
      0.00000000000000E+00   0.00000000000000E+00  -2.59252418972461E-15  -1.03977174290664E-15  -3.63229593263125E-15
      4.62966345507410E-13   0.00000000000000E+00   0.00000000000000E+00   0.00000000000000E+00   0.00000000000000E+00
     -1.67763269155660E-18  -1.04381531862926E-16  -1.06059164554483E-16   1.08655363249543E-13
      6.23099022222222E-02
      1.24619804448503E-01   1.24619804448503E-01   0.00000000000000E+00   0.00000000000000E+00   1.54302585959467E-14
      7.00793404601745E-15   2.24381926419642E-14  -5.21076850997337E-13   0.00000000000000E+00   0.00000000000000E+00
      0.00000000000000E+00   0.00000000000000E+00  -1.54203249666851E-14  -6.39530603425617E-15  -2.18156310009413E-14
      4.36657998743264E-13   0.00000000000000E+00   0.00000000000000E+00   0.00000000000000E+00   0.00000000000000E+00
     -9.93379923679296E-18  -6.12629323605013E-16  -6.22563122841806E-16   1.02296885188593E-13
      9.21978036148148E-02
      1.84395607233559E-01   1.84395607233559E-01   0.00000000000000E+00   0.00000000000000E+00   1.56445095316505E-13
      6.80003121546380E-14   2.24445407471143E-13  -4.78002702340505E-13   0.00000000000000E+00   0.00000000000000E+00
      0.00000000000000E+00   0.00000000000000E+00  -1.56344474812437E-13  -6.18735782299620E-14  -2.18218053042399E-13
      4.00423510883138E-13   0.00000000000000E+00   0.00000000000000E+00   0.00000000000000E+00   0.00000000000000E+00
     -1.00620504068172E-16  -6.12673392465870E-15  -6.22735442872688E-15   9.38606550335712E-14
      1.31151701763160E-01
      2.62303403530082E-01   2.62303403530082E-01   0.00000000000000E+00   0.00000000000000E+00   3.18720895621050E-12
      1.38137158169450E-12   4.56858053790500E-12  -4.19066185707798E-13   0.00000000000000E+00   0.00000000000000E+00
      0.00000000000000E+00   0.00000000000000E+00  -3.18517116617567E-12  -1.25940129993205E-12  -4.44457246610773E-12
      3.50402015146750E-13   0.00000000000000E+00   0.00000000000000E+00   0.00000000000000E+00   0.00000000000000E+00
     -2.03779003483777E-15  -1.21970281763030E-13  -1.24008071797868E-13   8.28643501294413E-14
      1.81921615683171E-01
      3.63843231369883E-01   3.63843231369883E-01   0.00000000000000E+00   0.00000000000000E+00   1.61855926704996E-10
      6.98544231441358E-11   2.31710349849132E-10  -3.35652603762542E-13   0.00000000000000E+00   0.00000000000000E+00
      0.00000000000000E+00   0.00000000000000E+00  -1.61753259854283E-10  -6.38586372247685E-11  -2.25611897079051E-10
      2.78609433972721E-13   0.00000000000000E+00   0.00000000000000E+00   0.00000000000000E+00   0.00000000000000E+00
     -1.02666871786989E-13  -5.99578610652527E-12  -6.09845297831226E-12   6.85307135929004E-14
      2.48091736825585E-01
      4.96183473654424E-01   4.96183473654424E-01   0.00000000000000E+00   0.00000000000000E+00   2.70281881368989E-08
      1.15878336126465E-08   3.86160217495454E-08  -2.08406337697632E-13   0.00000000000000E+00   0.00000000000000E+00
      0.00000000000000E+00   0.00000000000000E+00  -2.70052286445715E-08  -1.06319636240531E-08  -3.76371922686245E-08
      1.66513013868573E-13   0.00000000000000E+00   0.00000000000000E+00   0.00000000000000E+00   0.00000000000000E+00
     -2.29594923274262E-11  -9.55869988593123E-10  -9.78829480920549E-10   4.98464473737247E-14
      3.32789491887874E-01
      6.65578983778637E-01   6.65578983778637E-01   0.00000000000000E+00   0.00000000000000E+00   1.35315389957078E-05
      6.42999449782494E-06   1.99615334935327E-05  -5.04395580656530E-14   0.00000000000000E+00   0.00000000000000E+00
      0.00000000000000E+00   0.00000000000000E+00  -1.22978680079575E-05  -5.81604455247153E-06  -1.81139125604291E-05
      2.82470619159236E-14   0.00000000000000E+00   0.00000000000000E+00   0.00000000000000E+00   0.00000000000000E+00
     -1.23367098815965E-06  -6.13949948188880E-07  -1.84762093634853E-06   2.59967716431487E-14
      3.86996055127740E-01
      7.73992110258133E-01   7.73992110258133E-01   0.00000000000000E+00   0.00000000000000E+00   2.51363835101634E-04
      1.18794239942620E-04   3.70158075044254E-04  -1.72419792697199E-14   0.00000000000000E+00   0.00000000000000E+00
      0.00000000000000E+00   0.00000000000000E+00  -1.34458391524714E-04  -8.75955340461322E-05  -2.22053925570846E-04
      7.55386103301002E-15   0.00000000000000E+00   0.00000000000000E+00   0.00000000000000E+00   0.00000000000000E+00
     -1.16905443576921E-04  -3.11987058964900E-05  -1.48104149473411E-04   1.19385698635137E-14
      4.53850816456907E-01
      9.07701632916178E-01   9.07701632916178E-01   0.00000000000000E+00   0.00000000000000E+00   3.57037819757853E-03
      1.47709222254055E-03   5.04747042011908E-03  -4.50615662748748E-15   0.00000000000000E+00   0.00000000000000E+00
      0.00000000000000E+00   0.00000000000000E+00  -8.63155678942858E-04  -5.10369208900060E-04  -1.37352488784292E-03
      2.20082611020932E-15   0.00000000000000E+00   0.00000000000000E+00   0.00000000000000E+00   0.00000000000000E+00
     -2.70722251876173E-03  -9.66723013806532E-04  -3.67394553256827E-03   3.41189220993995E-15
      5.34745077665199E-01
      1.06949015533241E+00   1.06949015533241E+00   0.00000000000000E+00   0.00000000000000E+00   2.21052846003452E-02
      9.13321298267563E-03   3.12384975830208E-02  -1.41705367278052E-15   0.00000000000000E+00   0.00000000000000E+00
      0.00000000000000E+00   0.00000000000000E+00  -2.94815495851489E-03  -1.51755005892272E-03  -4.46570501743760E-03
      8.70392171187922E-16   0.00000000000000E+00   0.00000000000000E+00   0.00000000000000E+00   0.00000000000000E+00
     -1.91571296415671E-02  -7.61566292378666E-03  -2.67727925653537E-02   1.18114218734178E-15
      6.36402199250287E-01
      1.27280439850215E+00   1.27280439850215E+00   0.00000000000000E+00   0.00000000000000E+00   7.49935891818019E-02
      3.15689671337605E-02   1.06562556315562E-01  -2.38324043569647E-16   0.00000000000000E+00   0.00000000000000E+00
      0.00000000000000E+00   0.00000000000000E+00  -6.71832719163378E-03  -3.18381890648687E-03  -9.90214609812065E-03
      3.64718706721448E-16   0.00000000000000E+00   0.00000000000000E+00   0.00000000000000E+00   0.00000000000000E+00
     -6.82752619901681E-02  -2.83851482272737E-02  -9.66604102174418E-02   3.65700233479535E-16
      7.64151315375547E-01
      1.52830263075211E+00   1.52830263075211E+00   0.00000000000000E+00   0.00000000000000E+00   1.78978165527222E-01
      7.64210427031745E-02   2.55399208230396E-01   4.09460666436843E-16   0.00000000000000E+00   0.00000000000000E+00
      0.00000000000000E+00   0.00000000000000E+00  -1.12732559596397E-02  -5.12076416077165E-03  -1.63940201204114E-02
      2.26319453953877E-16   0.00000000000000E+00   0.00000000000000E+00   0.00000000000000E+00   0.00000000000000E+00
     -1.67704909569073E-01  -7.13002785432633E-02  -2.39005188112336E-01  -1.32903843203013E-16
      9.27670184015879E-01
      1.85534036803207E+00   1.85534036803207E+00   0.00000000000000E+00   0.00000000000000E+00   3.46029801888743E-01
      1.49547199235765E-01   4.95577001124507E-01   7.27256556719938E-16   0.00000000000000E+00   0.00000000000000E+00
      0.00000000000000E+00   0.00000000000000E+00  -1.47225610683243E-02  -6.57595549672579E-03  -2.12985165650501E-02
      4.40283936431718E-16   0.00000000000000E+00   0.00000000000000E+00   0.00000000000000E+00   0.00000000000000E+00
     -3.31307240820432E-01  -1.42971243739045E-01  -4.74278484559478E-01  -5.39126461995358E-16
      1.00000000000000E+00
      2.00000000000000E+00   2.00000000000000E+00   0.00000000000000E+00   0.00000000000000E+00   4.24848807693611E-01
      1.84477859218874E-01   6.09326666912485E-01   7.52611955263597E-16   0.00000000000000E+00   0.00000000000000E+00
      0.00000000000000E+00   0.00000000000000E+00  -1.55578856073126E-02  -6.93191004279519E-03  -2.24897956501078E-02
      6.30832184405785E-16   0.00000000000000E+00   0.00000000000000E+00   0.00000000000000E+00   0.00000000000000E+00
     -4.09290922086492E-01  -1.77545949176169E-01  -5.86836871262661E-01  -6.78623745971468E-16
      1.00000000000000E-03
      2.00000000000000E+00   2.00000000000000E+00   0.00000000000000E+00   0.00000000000000E+00   4.24791540514187E-01
      1.84454191643487E-01   6.09245732157674E-01   7.52213838966424E-16   1.10000000000000E-02   1.10000000000000E-02
      0.00000000000000E+00   0.00000000000000E+00  -1.55007372077998E-02  -6.90831173324813E-03  -2.24090489410479E-02
      6.31825501612173E-16   0.00000000000000E+00   0.00000000000000E+00   0.00000000000000E+00   0.00000000000000E+00
     -4.09290803306387E-01  -1.77545879910239E-01  -5.86836683216626E-01  -6.78623540533152E-16
      2.30333333333333E-03
      2.00000000000000E+00   2.00000000000000E+00   0.00000000000000E+00   0.00000000000000E+00   4.24714512381878E-01
      1.84422377732829E-01   6.09136890114706E-01   7.51678266240923E-16   2.53366666666667E-02   2.53366666666667E-02
      0.00000000000000E+00   0.00000000000000E+00  -1.54239458067861E-02  -6.87662547957092E-03  -2.23005712863571E-02
      6.33163732545670E-16   0.00000000000000E+00   0.00000000000000E+00   0.00000000000000E+00   0.00000000000000E+00
     -4.09290566575091E-01  -1.77545752253258E-01  -5.86836318828348E-01  -6.78623069409723E-16
      4.03242222222222E-03
      2.00000000000000E+00   2.00000000000000E+00   0.00000000000000E+00   0.00000000000000E+00   4.24607934141539E-01
      1.84378396215586E-01   6.08986330357126E-01   7.50937013857107E-16   4.43566444444444E-02   4.43566444444444E-02
      0.00000000000000E+00   0.00000000000000E+00  -1.53178363120223E-02  -6.83288386637810E-03  -2.21507201784004E-02
      6.35019555867179E-16   0.00000000000000E+00   0.00000000000000E+00   0.00000000000000E+00   0.00000000000000E+00
     -4.09290097829517E-01  -1.77545512349208E-01  -5.86835610178725E-01  -6.78622060180470E-16
      6.32634681481481E-03
      2.00000000000000E+00   2.00000000000000E+00   0.00000000000000E+00   0.00000000000000E+00   4.24458289787913E-01
      1.84316710856448E-01   6.08775000644362E-01   7.49895634278086E-16   6.95898149629630E-02   6.95898149629630E-02
      0.00000000000000E+00   0.00000000000000E+00  -1.51691157239992E-02  -6.77165437746017E-03  -2.19407701014594E-02
      6.37633877016678E-16   0.00000000000000E+00   0.00000000000000E+00   0.00000000000000E+00   0.00000000000000E+00
     -4.09289174063914E-01  -1.77545056478988E-01  -5.86834230542902E-01  -6.78619970891471E-16
      9.36962010765432E-03
      2.00000000000000E+00   2.00000000000000E+00   0.00000000000000E+00   0.00000000000000E+00   4.24243903824048E-01
      1.84228465559012E-01   6.08472369383060E-01   7.48402039711099E-16   1.03065821184198E-01   1.03065821184198E-01
      0.00000000000000E+00   0.00000000000000E+00  -1.49565660218021E-02  -6.68429199166905E-03  -2.16408580134712E-02
      6.41397695094639E-16   0.00000000000000E+00   0.00000000000000E+00   0.00000000000000E+00   0.00000000000000E+00
     -4.09287337802246E-01  -1.77544173567344E-01  -5.86831511369590E-01  -6.78615679721722E-16
      1.34070293428214E-02
      2.00000000000000E+00   2.00000000000000E+00   0.00000000000000E+00   0.00000000000000E+00   4.23928137950558E-01
      1.84098732869741E-01   6.08026870820299E-01   7.46197311971032E-16   1.47477322771035E-01   1.47477322771035E-01
      0.00000000000000E+00   0.00000000000000E+00  -1.46445306473529E-02  -6.55631945213462E-03  -2.12008500994875E-02
      6.46983553609520E-16   0.00000000000000E+00   0.00000000000000E+00   0.00000000000000E+00   0.00000000000000E+00
     -4.09283607303212E-01  -1.77542413417613E-01  -5.86826020720825E-01  -6.78606762828776E-16
      1.87633255948097E-02
      2.00000000000000E+00   2.00000000000000E+00   0.00000000000000E+00   0.00000000000000E+00   4.23445155247562E-01
      1.83900772218638E-01   6.07345927466200E-01   7.42810328942400E-16   2.06396581542907E-01   2.06396581542907E-01
      0.00000000000000E+00   0.00000000000000E+00  -1.41694195004246E-02  -6.36202145795340E-03  -2.05314409583780E-02
      6.55632498655042E-16   0.00000000000000E+00   0.00000000000000E+00   0.00000000000000E+00   0.00000000000000E+00
     -4.09275735747281E-01  -1.77538750760815E-01  -5.86814486508096E-01  -6.78587642970135E-16
      2.58693452891142E-02
      2.00000000000000E+00   2.00000000000000E+00   0.00000000000000E+00   0.00000000000000E+00   4.22669362703789E-01
      1.83583746382294E-01   6.06253109086084E-01   7.37321634271143E-16   2.84562798180257E-01   2.84562798180257E-01
      0.00000000000000E+00   0.00000000000000E+00  -1.34112167424788E-02  -6.05309511510566E-03  -1.94643118575845E-02
      6.69815475084932E-16   0.00000000000000E+00   0.00000000000000E+00   0.00000000000000E+00   0.00000000000000E+00
     -4.09258145965243E-01  -1.77530651270524E-01  -5.86788797235767E-01  -6.78544412344660E-16
      3.52966647502249E-02
      2.00000000000000E+00   2.00000000000000E+00   0.00000000000000E+00   0.00000000000000E+00   4.21354533077936E-01
      1.83048385272942E-01   6.04402918350878E-01   7.27846027789537E-16   3.88263312252474E-01   3.88263312252474E-01
      0.00000000000000E+00   0.00000000000000E+00  -1.21387891321089E-02  -5.53710262366582E-03  -1.76758917557747E-02
      6.94755012713132E-16   0.00000000000000E+00   0.00000000000000E+00   0.00000000000000E+00   0.00000000000000E+00
     -4.09215743945827E-01  -1.77511282649276E-01  -5.86727026595103E-01  -6.78439268475998E-16
      4.75836044478724E-02
      2.00000000000000E+00   2.00000000000000E+00   0.00000000000000E+00   0.00000000000000E+00   4.19100999850246E-01
      1.82134605406968E-01   6.01235605257214E-01   7.10963734453198E-16   5.23419648926597E-01   5.23419648926597E-01
      0.00000000000000E+00   0.00000000000000E+00  -9.99262215013981E-03  -4.67206204573344E-03  -1.46646841958733E-02
      7.40462330288459E-16   0.00000000000000E+00   0.00000000000000E+00   0.00000000000000E+00   0.00000000000000E+00
     -4.09108377700136E-01  -1.77462543361250E-01  -5.86570921061386E-01  -6.78171175345081E-16
      6.35975825204731E-02
      2.00000000000000E+00   2.00000000000000E+00   0.00000000000000E+00   0.00000000000000E+00   4.15407181098463E-01
      1.80643625497163E-01   5.96050806595626E-01   6.80966538408629E-16   6.99573407725204E-01   6.99573407725204E-01
      0.00000000000000E+00   0.00000000000000E+00  -6.57270893637808E-03  -3.30483858051631E-03  -9.87754751689438E-03
      8.25042789556202E-16   0.00000000000000E+00   0.00000000000000E+00   0.00000000000000E+00   0.00000000000000E+00
     -4.08834472162085E-01  -1.77338786916646E-01  -5.86173259078731E-01  -6.77483334619486E-16
      8.40954744534019E-02
      2.00000000000000E+00   2.00000000000000E+00   0.00000000000000E+00   0.00000000000000E+00   4.10321583044316E-01
      1.78604088727325E-01   5.88925671771642E-01   6.32552283041608E-16   9.25050218987421E-01   9.25050218987421E-01
      0.00000000000000E+00   0.00000000000000E+00  -2.11024677580142E-03  -1.54591227188840E-03  -3.65615904768982E-03
      9.67688698623642E-16   0.00000000000000E+00   0.00000000000000E+00   0.00000000000000E+00   0.00000000000000E+00
     -4.08211336268515E-01  -1.77058176455437E-01  -5.85269512723952E-01  -6.75910328131839E-16
      1.10332776127551E-01
      2.00000000000000E+00   2.00000000000000E+00   0.00000000000000E+00   0.00000000000000E+00   4.05498493122256E-01
      1.76718347565223E-01   5.82216840687479E-01   5.73114048217818E-16   1.21366053740306E+00   1.21366053740306E+00
      0.00000000000000E+00   0.00000000000000E+00   1.64894407600706E-03  -1.38214983898808E-04   1.51072909210826E-03
      1.14286214918746E-15   0.00000000000000E+00   0.00000000000000E+00   0.00000000000000E+00   0.00000000000000E+00
     -4.07147437198263E-01  -1.76580132581325E-01  -5.83727569779587E-01  -6.73209418660996E-16
      1.43304318564731E-01
      2.00000000000000E+00   2.00000000000000E+00   0.00000000000000E+00   0.00000000000000E+00   4.03605006657888E-01
      1.76127090584950E-01   5.79732097242838E-01   5.48475479153753E-16   1.57634750421204E+00   1.57634750421204E+00
      0.00000000000000E+00   0.00000000000000E+00   2.53272702009693E-03  -1.52686139232904E-09   2.53272549323553E-03
      1.20405406355777E-15   0.00000000000000E+00   0.00000000000000E+00   0.00000000000000E+00   0.00000000000000E+00
     -4.06137733677985E-01  -1.76127089058089E-01  -5.82264822736074E-01  -6.70630663046978E-16
      1.63252101739225E-01
      2.00000000000000E+00   2.00000000000000E+00   0.00000000000000E+00   0.00000000000000E+00   4.02623022557068E-01
      1.75841595460316E-01   5.78464618017383E-01   5.33777485348517E-16   1.79577311913148E+00   1.79577311913148E+00
      0.00000000000000E+00   0.00000000000000E+00   2.87838937283359E-03  -4.94251848314432E-13   2.87838937233934E-03
      1.23525671441991E-15   0.00000000000000E+00   0.00000000000000E+00   0.00000000000000E+00   0.00000000000000E+00
     -4.05501411929900E-01  -1.75841595459822E-01  -5.81343007389722E-01  -6.68999849350231E-16
      1.87854367654435E-01
      2.00000000000000E+00   2.00000000000000E+00   0.00000000000000E+00   0.00000000000000E+00   4.01425899597338E-01
      1.75488013142416E-01   5.76913912739754E-01   5.10518103875177E-16   2.06639804419878E+00   2.06639804419878E+00
      0.00000000000000E+00   0.00000000000000E+00   3.28747292343044E-03   2.85914702468780E-15   3.28747292343330E-03
      1.28351916319638E-15   0.00000000000000E+00   0.00000000000000E+00   0.00000000000000E+00   0.00000000000000E+00
     -4.04713372520769E-01  -1.75488013142418E-01  -5.80201385663187E-01  -6.66974475750489E-16
      2.18197162283193E-01
      2.00000000000000E+00   2.00000000000000E+00   0.00000000000000E+00   0.00000000000000E+00   4.00034673538430E-01
      1.75072631563719E-01   5.75107305102149E-01   4.65409390658499E-16   2.40016878511513E+00   2.40016878511513E+00
      0.00000000000000E+00   0.00000000000000E+00   3.75294459220556E-03   3.15707369081170E-15   3.75294459220872E-03
      1.37430369762594E-15   0.00000000000000E+00   0.00000000000000E+00   0.00000000000000E+00   0.00000000000000E+00
     -4.03787618130636E-01  -1.75072631563723E-01  -5.78860249694358E-01  -6.64586988642572E-16
      2.35846554492254E-01
      2.00000000000000E+00   2.00000000000000E+00   0.00000000000000E+00   0.00000000000000E+00   3.99264270358468E-01
      1.74841226049350E-01   5.74105496407817E-01   4.09228017834032E-16   2.59431209941480E+00   2.59431209941480E+00
      0.00000000000000E+00   0.00000000000000E+00   4.00760120799680E-03   3.27636089744918E-15   4.00760120800007E-03
      1.46873570781717E-15   0.00000000000000E+00   0.00000000000000E+00   0.00000000000000E+00   0.00000000000000E+00
     -4.03271871566465E-01  -1.74841226049353E-01  -5.78113097615818E-01  -6.63253041766761E-16
      2.58025957368308E-01
      2.00000000000000E+00   2.00000000000000E+00   0.00000000000000E+00   0.00000000000000E+00   3.98354395489639E-01
      1.74568582997244E-01   5.72922978486883E-01   8.51296599382459E-17   2.83828553105139E+00   2.83828553105139E+00
      0.00000000000000E+00   0.00000000000000E+00   4.30980423316054E-03   2.78947264090861E-15   4.30980423316333E-03
      1.85980861702892E-15   0.00000000000000E+00   0.00000000000000E+00   0.00000000000000E+00   0.00000000000000E+00
     -4.02664199722800E-01  -1.74568582997246E-01  -5.77232782720046E-01  -6.61677811791614E-16
      2.85380554248774E-01
      2.00000000000000E+00   2.00000000000000E+00   0.00000000000000E+00   0.00000000000000E+00   3.97306404555432E-01
      1.74259191694896E-01   5.71565596250328E-01  -1.42276140847119E-15   3.13918609673651E+00   3.13918609673651E+00
      0.00000000000000E+00   0.00000000000000E+00   4.66818688006182E-03   4.93168940239661E-14   4.66818688011113E-03
      3.50015181035517E-15   0.00000000000000E+00   0.00000000000000E+00   0.00000000000000E+00   0.00000000000000E+00
     -4.01974591435494E-01  -1.74259191694946E-01  -5.76233783130440E-01  -6.59885596166988E-16
      3.19117890401348E-01
      2.00000000000000E+00   2.00000000000000E+00   0.00000000000000E+00   0.00000000000000E+00   3.96048669691539E-01
      1.73892227815943E-01   5.69940897507482E-01  -4.30051211085459E-15   3.51029679441483E+00   3.51029679441483E+00
      0.00000000000000E+00   0.00000000000000E+00   5.10795100158479E-03   5.74168532995141E-15   5.10795100159053E-03
      6.65834963771510E-15   0.00000000000000E+00   0.00000000000000E+00   0.00000000000000E+00   0.00000000000000E+00
     -4.01156620693123E-01  -1.73892227815948E-01  -5.75048848509072E-01  -6.57753515775457E-16
      3.60727271656191E-01
      2.00000000000000E+00   2.00000000000000E+00   0.00000000000000E+00   0.00000000000000E+00   3.94618085273827E-01
      1.73479036842143E-01   5.68097122115970E-01  -9.07700518677925E-15   3.96799998821810E+00   3.96799998821810E+00
      0.00000000000000E+00   0.00000000000000E+00   5.61740558710585E-03   6.01780233233559E-15   5.61740558711187E-03
      1.19487182895961E-14   0.00000000000000E+00   0.00000000000000E+00   0.00000000000000E+00   0.00000000000000E+00
     -4.00235490860933E-01  -1.73479036842149E-01  -5.73714527703082E-01  -6.55344293736828E-16
      4.10727271656190E-01
      2.00000000000000E+00   2.00000000000000E+00   0.00000000000000E+00   0.00000000000000E+00   3.93067573216257E-01
      1.73037696166013E-01   5.66105269382269E-01  -1.63003695791578E-14   4.51799998821810E+00   4.51799998821810E+00
      0.00000000000000E+00   0.00000000000000E+00   6.18346625042212E-03   1.02814251074683E-14   6.18346625043240E-03
      1.99503223771232E-14   0.00000000000000E+00   0.00000000000000E+00   0.00000000000000E+00   0.00000000000000E+00
     -3.99251039466678E-01  -1.73037696166023E-01  -5.72288735632701E-01  -6.52759182300323E-16
      4.60727271656190E-01
      2.00000000000000E+00   2.00000000000000E+00   0.00000000000000E+00   0.00000000000000E+00   3.91598643491846E-01
      1.72620432144858E-01   5.64219075636704E-01  -2.45991425107765E-14   5.06799998821810E+00   5.06799998821810E+00
      0.00000000000000E+00   0.00000000000000E+00   6.72155460325332E-03   6.61831727210028E-15   6.72155460325994E-03
      2.91206212161216E-14   0.00000000000000E+00   0.00000000000000E+00   0.00000000000000E+00   0.00000000000000E+00
     -3.98320198095099E-01  -1.72620432144865E-01  -5.70940630239964E-01  -6.50305783010437E-16
      5.10727271656190E-01
      2.00000000000000E+00   2.00000000000000E+00   0.00000000000000E+00   0.00000000000000E+00   3.90244863057862E-01
      1.72237385390778E-01   5.62482248448640E-01  -3.38658319385104E-14   5.61799998821810E+00   5.61799998821810E+00
      0.00000000000000E+00   0.00000000000000E+00   7.22084504114837E-03   4.05796264064666E-14   7.22084504118895E-03
      3.93680187532765E-14   0.00000000000000E+00   0.00000000000000E+00   0.00000000000000E+00   0.00000000000000E+00
     -3.97465708099011E-01  -1.72237385390818E-01  -5.69703093489829E-01  -6.48045916089760E-16
      5.60727271656191E-01
      2.00000000000000E+00   2.00000000000000E+00   0.00000000000000E+00   0.00000000000000E+00   3.88911241036649E-01
      1.71861048722569E-01   5.60772289759218E-01  -4.34899115178645E-14   6.16799998821810E+00   6.16799998821810E+00
      0.00000000000000E+00   0.00000000000000E+00   7.71456156541416E-03   8.10412142511663E-15   7.71456156542226E-03
      5.00585158324625E-14   0.00000000000000E+00   0.00000000000000E+00   0.00000000000000E+00   0.00000000000000E+00
     -3.96625802602063E-01  -1.71861048722577E-01  -5.68486851324640E-01  -6.45816722894472E-16
      6.10727271656191E-01
      2.00000000000000E+00   2.00000000000000E+00   0.00000000000000E+00   0.00000000000000E+00   3.87685350657247E-01
      1.71515945316793E-01   5.59201295974041E-01  -5.38727792350922E-14   6.71799998821810E+00   6.71799998821810E+00
      0.00000000000000E+00   0.00000000000000E+00   8.17008162581117E-03   9.39505373532883E-15   8.17008162582056E-03
      6.16293577401523E-14   0.00000000000000E+00   0.00000000000000E+00   0.00000000000000E+00   0.00000000000000E+00
     -3.95855432283058E-01  -1.71515945316803E-01  -5.67371377599861E-01  -6.43765394418796E-16
      6.60727271656191E-01
      2.00000000000000E+00   2.00000000000000E+00   0.00000000000000E+00   0.00000000000000E+00   3.86603346017501E-01
      1.71215053893976E-01   5.57818399911478E-01  -6.49919376793250E-14   7.26799998821810E+00   7.26799998821810E+00
      0.00000000000000E+00   0.00000000000000E+00   8.58011215338818E-03   9.66426156942905E-15   8.58011215339785E-03
      7.40495051870876E-14   0.00000000000000E+00   0.00000000000000E+00   0.00000000000000E+00   0.00000000000000E+00
     -3.95183458170889E-01  -1.71215053893986E-01  -5.66398512064875E-01  -6.41970649732869E-16
      7.10727271656191E-01
      2.00000000000000E+00   2.00000000000000E+00   0.00000000000000E+00   0.00000000000000E+00   3.85588816883270E-01
      1.70934443676597E-01   5.56523260559867E-01  -7.65632869152904E-14   7.81799998821810E+00   7.81799998821810E+00
      0.00000000000000E+00   0.00000000000000E+00   8.96773951374187E-03   9.46913999765078E-15   8.96773951375134E-03
      8.69572370506502E-14   0.00000000000000E+00   0.00000000000000E+00   0.00000000000000E+00   0.00000000000000E+00
     -3.94556556397011E-01  -1.70934443676607E-01  -5.65491000073618E-01  -6.40291946763700E-16
      7.60727271656191E-01
      2.00000000000000E+00   2.00000000000000E+00   0.00000000000000E+00   0.00000000000000E+00   3.84519010336250E-01
      1.70637478451315E-01   5.55156488787565E-01  -8.75822402397653E-14   8.36799998821810E+00   8.36799998821810E+00
      0.00000000000000E+00   0.00000000000000E+00   9.37384383872025E-03   1.00638279280194E-14   9.37384383873031E-03
      9.92480648620827E-14   0.00000000000000E+00   0.00000000000000E+00   0.00000000000000E+00   0.00000000000000E+00
     -3.93892854174970E-01  -1.70637478451325E-01  -5.64530332626295E-01  -6.38510119270266E-16
      8.10727271656191E-01
      2.00000000000000E+00   2.00000000000000E+00   0.00000000000000E+00   0.00000000000000E+00   3.83407070541355E-01
      1.70324396625082E-01   5.53731467166437E-01  -9.84696554695026E-14   8.91799998821810E+00   8.91799998821810E+00