DF-ISE text

Info {
  version   = 1.0
  type      = xyplot
  datasets  = [
    "time"
    "baze OuterVoltage" "baze InnerVoltage" "baze QuasiFermiPotential" "baze DisplacementCurrent" "baze eCurrent"
    "baze hCurrent" "baze TotalCurrent" "baze Charge" "koll_c0 OuterVoltage" "koll_c0 InnerVoltage"
    "koll_c0 QuasiFermiPotential" "koll_c0 DisplacementCurrent" "koll_c0 eCurrent" "koll_c0 hCurrent" "koll_c0 TotalCurrent"
    "koll_c0 Charge" "emit OuterVoltage" "emit InnerVoltage" "emit QuasiFermiPotential" "emit DisplacementCurrent"
    "emit eCurrent" "emit hCurrent" "emit TotalCurrent" "emit Charge" ]
  functions = [
    Time
    OuterVoltage InnerVoltage QuasiFermiPotential DisplacementCurrent eCurrent
    hCurrent TotalCurrent Charge OuterVoltage InnerVoltage
    QuasiFermiPotential DisplacementCurrent eCurrent hCurrent TotalCurrent
    Charge OuterVoltage InnerVoltage QuasiFermiPotential DisplacementCurrent
    eCurrent hCurrent TotalCurrent Charge ]
}

Data {
      0.00000000000000E+00
      0.00000000000000E+00   0.00000000000000E+00   0.00000000000000E+00   0.00000000000000E+00   1.03567918102409E-23
     -1.82040065910567E-21  -1.81004386729543E-21  -6.06289444526481E-13   0.00000000000000E+00   0.00000000000000E+00
      0.00000000000000E+00   0.00000000000000E+00  -1.03568012983314E-23   1.82040089998877E-21   1.81004409869044E-21
      5.07565828987164E-13   0.00000000000000E+00   0.00000000000000E+00   0.00000000000000E+00   0.00000000000000E+00
      2.69597017855223E-30  -2.74605962534141E-28  -2.71909992355589E-28   1.19882219900828E-13
      0.00000000000000E+00
      4.32855061985353E-12   4.32855061985353E-12   0.00000000000000E+00   0.00000000000000E+00  -2.12815070664782E-25
     -2.04180906210799E-24  -2.25462413277277E-24  -6.06289444290086E-13   0.00000000000000E+00   0.00000000000000E+00
      0.00000000000000E+00   0.00000000000000E+00   2.12795518280206E-25   2.04898016381791E-24   2.26177568209811E-24
      5.07565828751301E-13   0.00000000000000E+00   0.00000000000000E+00   0.00000000000000E+00   0.00000000000000E+00
      2.01093143585504E-29  -7.83566324502646E-28  -7.63457010144096E-28   1.19882219900217E-13
      1.00000000000000E-02
      3.00000000042853E-02   3.00000000042853E-02   0.00000000000000E+00   0.00000000000000E+00   2.75416355026902E-16
      1.19888221361089E-16   3.95304576387990E-16  -5.86279416457520E-13   0.00000000000000E+00   0.00000000000000E+00
      0.00000000000000E+00   0.00000000000000E+00  -2.75237885536564E-16  -1.08694275487182E-16  -3.83932161023746E-16
      4.91020757709828E-13   0.00000000000000E+00   0.00000000000000E+00   0.00000000000000E+00   0.00000000000000E+00
     -1.78470739598171E-19  -1.11939942006423E-17  -1.13724649402404E-17   1.15649167021188E-13
      2.28000000000000E-02
      6.84000000042299E-02   6.84000000042299E-02   0.00000000000000E+00   0.00000000000000E+00   1.64292266210434E-15
      7.48541114936154E-16   2.39146377704050E-15  -5.60217100282457E-13   0.00000000000000E+00   0.00000000000000E+00
      0.00000000000000E+00   0.00000000000000E+00  -1.64187261487775E-15  -6.82437007456388E-16  -2.32430962233414E-15
      4.69363323323867E-13   0.00000000000000E+00   0.00000000000000E+00   0.00000000000000E+00   0.00000000000000E+00
     -1.06203230436049E-18  -6.62097248367291E-17  -6.72717571410896E-17   1.10230576398466E-13
      3.97813333333333E-02
      1.19344000004156E-01   1.19344000004156E-01   0.00000000000000E+00   0.00000000000000E+00   1.25249734807872E-14
      5.45594859786802E-15   1.79809220786552E-14  -5.24802961038094E-13   0.00000000000000E+00   0.00000000000000E+00
      0.00000000000000E+00   0.00000000000000E+00  -1.25168854329564E-14  -4.95660542237197E-15  -1.74734908553284E-14
      4.39780417714520E-13   0.00000000000000E+00   0.00000000000000E+00   0.00000000000000E+00   0.00000000000000E+00
     -8.08804783077071E-18  -4.99343175462178E-16  -5.07431223292948E-16   1.03041430375511E-13
      6.19136711111111E-02
      1.85741013337394E-01   1.85741013337394E-01   0.00000000000000E+00   0.00000000000000E+00   1.64808510563768E-13
      7.16321288064378E-14   2.36440639370206E-13  -4.77013752175660E-13   0.00000000000000E+00   0.00000000000000E+00
      0.00000000000000E+00   0.00000000000000E+00  -1.64702520774550E-13  -6.51803492596589E-14  -2.29882870034209E-13
      3.99588507023994E-13   0.00000000000000E+00   0.00000000000000E+00   0.00000000000000E+00   0.00000000000000E+00
     -1.05989789221175E-16  -6.45177954693997E-15  -6.55776933616114E-15   9.36707678687357E-14
      9.07594846814815E-02
      2.72278454048380E-01   2.72278454048380E-01   0.00000000000000E+00   0.00000000000000E+00   4.68792889274848E-12
      2.03101237038618E-12   6.71894126313466E-12  -4.11244802002423E-13   0.00000000000000E+00   0.00000000000000E+00
      0.00000000000000E+00   0.00000000000000E+00  -4.68493411697971E-12  -1.85216132994023E-12  -6.53709544691994E-12
      3.43722163921290E-13   0.00000000000000E+00   0.00000000000000E+00   0.00000000000000E+00   0.00000000000000E+00
     -2.99477576877886E-15  -1.78851040446225E-13  -1.81845816215004E-13   8.14563335043697E-14
      1.28355195034864E-01
      3.85065585108366E-01   3.85065585108366E-01   0.00000000000000E+00   0.00000000000000E+00   3.67806590698193E-10
      1.58586817114573E-10   5.26393407812766E-10  -3.16939891293750E-13   0.00000000000000E+00   0.00000000000000E+00
      0.00000000000000E+00   0.00000000000000E+00  -3.67573229221540E-10  -1.45059025297007E-10  -5.12632254518547E-10
      2.62325827765208E-13   0.00000000000000E+00   0.00000000000000E+00   0.00000000000000E+00   0.00000000000000E+00
     -2.33361759412545E-13  -1.35277943415542E-11  -1.37611561009668E-11   6.55346608256267E-14
      1.77354937528773E-01
      5.32064812589880E-01   5.32064812589880E-01   0.00000000000000E+00   0.00000000000000E+00   1.07990660383068E-07
      4.62391609595413E-08   1.54229821342609E-07  -1.69240859717328E-13   0.00000000000000E+00   0.00000000000000E+00
      0.00000000000000E+00   0.00000000000000E+00  -1.07825842496327E-07  -4.24630197163289E-08  -1.50288862212656E-07
      1.31458023348822E-13   0.00000000000000E+00   0.00000000000000E+00   0.00000000000000E+00   0.00000000000000E+00
     -1.64817886741745E-10  -3.77614124321955E-09  -3.94095912996130E-09   4.47804724083359E-14
      2.40074607920976E-01
      7.20223823766219E-01   7.20223823766219E-01   0.00000000000000E+00   0.00000000000000E+00   6.37797329936859E-05
      3.22582033306179E-05   9.60379363243038E-05  -3.00116949817092E-14   0.00000000000000E+00   0.00000000000000E+00
      0.00000000000000E+00   0.00000000000000E+00  -4.69777310670010E-05  -2.75492629654691E-05  -7.45269940324701E-05
      1.44283186028818E-14   0.00000000000000E+00   0.00000000000000E+00   0.00000000000000E+00   0.00000000000000E+00
     -1.68020019266849E-05  -4.70894036514851E-06  -2.15109422918334E-05   1.85368008051069E-14
      2.78751737996168E-01
      8.36255213991627E-01   8.36255213991627E-01   0.00000000000000E+00   0.00000000000000E+00   1.00615612198614E-03
      4.33113215363157E-04   1.43926933734930E-03  -8.85563608574680E-15   0.00000000000000E+00   0.00000000000000E+00
      0.00000000000000E+00   0.00000000000000E+00  -3.63419507251513E-04  -2.32384980711430E-04  -5.95804487962943E-04
      3.91696575647511E-15   0.00000000000000E+00   0.00000000000000E+00   0.00000000000000E+00   0.00000000000000E+00
     -6.42736614734743E-04  -2.00728234651895E-04  -8.43464849386638E-04   6.53764921063624E-15
      3.26453531755572E-01
      9.79360595269631E-01   9.79360595269631E-01   0.00000000000000E+00   0.00000000000000E+00   9.26407505032129E-03
      3.80470728636005E-03   1.30687823366813E-02  -2.59115009849640E-15   0.00000000000000E+00   0.00000000000000E+00
      0.00000000000000E+00   0.00000000000000E+00  -1.63609063386267E-03  -8.99998027988933E-04  -2.53608866185161E-03
      1.39781456309180E-15   0.00000000000000E+00   0.00000000000000E+00   0.00000000000000E+00   0.00000000000000E+00
     -7.62798441646856E-03  -2.90470925837552E-03  -1.05326936748441E-02   2.01557676878978E-15
      3.84172702204450E-01
      1.15251810661602E+00   1.15251810661602E+00   0.00000000000000E+00   0.00000000000000E+00   3.98442133021834E-02
      1.66002991899582E-02   5.64445124921415E-02  -8.01374261367754E-16   0.00000000000000E+00   0.00000000000000E+00
      0.00000000000000E+00   0.00000000000000E+00  -4.40322347050043E-03  -2.17283036022198E-03  -6.57605383072241E-03
      5.93325924189529E-16   0.00000000000000E+00   0.00000000000000E+00   0.00000000000000E+00   0.00000000000000E+00
     -3.54409898316829E-02  -1.44274688297362E-02  -4.98684586614191E-02   7.55142671852394E-16
      4.56706459735207E-01
      1.37011937920797E+00   1.37011937920797E+00   0.00000000000000E+00   0.00000000000000E+00   1.10542926083266E-01
      4.68309896264718E-02   1.57373915709738E-01   6.97241994680574E-17   0.00000000000000E+00   0.00000000000000E+00
      0.00000000000000E+00   0.00000000000000E+00  -8.58840290546605E-03  -3.98449575318092E-03  -1.25728986586470E-02
      2.69202721287165E-16   0.00000000000000E+00   0.00000000000000E+00   0.00000000000000E+00   0.00000000000000E+00
     -1.01954523188401E-01  -4.28464938808208E-02  -1.44801017069221E-01   1.43020480078690E-16
      5.49549669374576E-01
      1.64864900812568E+00   1.64864900812568E+00   0.00000000000000E+00   0.00000000000000E+00   2.37546260770918E-01
      1.01919986734616E-01   3.39466247505534E-01   5.75868980872890E-16   0.00000000000000E+00   0.00000000000000E+00
      0.00000000000000E+00   0.00000000000000E+00  -1.28649051634879E-02  -5.79124756733721E-03  -1.86561527308251E-02
      2.64486657885340E-16   0.00000000000000E+00   0.00000000000000E+00   0.00000000000000E+00   0.00000000000000E+00
     -2.24681355607554E-01  -9.61287391673441E-02  -3.20810094774898E-01  -3.01152023406276E-16
      6.68388977712968E-01
      2.00516693314034E+00   2.00516693314034E+00   0.00000000000000E+00   0.00000000000000E+00   4.27679804623026E-01
      1.85737764462809E-01   6.13417569085835E-01   7.52455832468148E-16   0.00000000000000E+00   0.00000000000000E+00
      0.00000000000000E+00   0.00000000000000E+00  -1.55828356882913E-02  -6.94259372805424E-03  -2.25254294163456E-02
      6.38532929887741E-16   0.00000000000000E+00   0.00000000000000E+00   0.00000000000000E+00   0.00000000000000E+00
     -4.12096968934737E-01  -1.78795170734756E-01  -5.90892139669492E-01  -6.83275302233095E-16
      8.20503292386111E-01
      2.46150987715911E+00   2.46150987715911E+00   0.00000000000000E+00   0.00000000000000E+00   6.73755544551668E-01
      2.96749752079062E-01   9.70505296630730E-01   5.04032895695411E-16   0.00000000000000E+00   0.00000000000000E+00
      0.00000000000000E+00   0.00000000000000E+00  -1.70272116340943E-02  -7.56832712376064E-03  -2.45955387578549E-02
      1.51844170772862E-15   0.00000000000000E+00   0.00000000000000E+00   0.00000000000000E+00   0.00000000000000E+00
     -6.56728332917573E-01  -2.89181424955302E-01  -9.45909757872875E-01  -1.02622230884006E-15
      1.00000000000000E+00
      3.00000000000000E+00   3.00000000000000E+00   0.00000000000000E+00   0.00000000000000E+00   9.40012105456367E-01
      4.20495479502837E-01   1.36050758495920E+00  -1.96026927181643E-16   0.00000000000000E+00   0.00000000000000E+00
      0.00000000000000E+00   0.00000000000000E+00  -1.78272605044048E-02  -7.91982973021341E-03  -2.57470902346183E-02
      2.91239120674502E-15   0.00000000000000E+00   0.00000000000000E+00   0.00000000000000E+00   0.00000000000000E+00
     -9.22184844951963E-01  -4.12575649772625E-01  -1.33476049472459E+00  -1.31608936230049E-15
      1.00000000000000E-03
      3.00000000000000E+00   3.00000000000000E+00   0.00000000000000E+00   0.00000000000000E+00   9.39999451295635E-01
      4.20490018078661E-01   1.36048946937430E+00  -1.96098692088181E-16   1.10000000000000E-02   1.10000000000000E-02
      0.00000000000000E+00   0.00000000000000E+00  -1.78149969407226E-02  -7.91454805068752E-03  -2.57295449914101E-02
      2.91267309820433E-15   0.00000000000000E+00   0.00000000000000E+00   0.00000000000000E+00   0.00000000000000E+00
     -9.22184454361914E-01  -4.12575470030797E-01  -1.33475992439271E+00  -1.31608875640853E-15
      2.32666666666667E-03
      3.00000000000000E+00   3.00000000000000E+00   0.00000000000000E+00   0.00000000000000E+00   9.39982412800496E-01
      4.20482669918160E-01   1.36046508271866E+00  -1.96195109810174E-16   2.55933333333333E-02   2.55933333333333E-02
      0.00000000000000E+00   0.00000000000000E+00  -1.77984994470543E-02  -7.90744876252716E-03  -2.57059482095815E-02
      2.91305205425912E-15   0.00000000000000E+00   0.00000000000000E+00   0.00000000000000E+00   0.00000000000000E+00
     -9.22183913353783E-01  -4.12575221155770E-01  -1.33475913450955E+00  -1.31608791700272E-15
      4.11766666666667E-03
      3.00000000000000E+00   3.00000000000000E+00   0.00000000000000E+00   0.00000000000000E+00   9.39958945187209E-01
      4.20472559230468E-01   1.36043150441768E+00  -1.96327518869970E-16   4.52943333333333E-02   4.52943333333333E-02
      0.00000000000000E+00   0.00000000000000E+00  -1.77758048168860E-02  -7.89769350853028E-03  -2.56734983254162E-02
      2.91357289403837E-15   0.00000000000000E+00   0.00000000000000E+00   0.00000000000000E+00   0.00000000000000E+00
     -9.22183140371500E-01  -4.12574865722409E-01  -1.33475800609391E+00  -1.31608671734897E-15
      6.53551666666667E-03
      3.00000000000000E+00   3.00000000000000E+00   0.00000000000000E+00   0.00000000000000E+00   9.39926383665512E-01
      4.20458549549056E-01   1.36038493321457E+00  -1.96510510140172E-16   7.18906833333333E-02   7.18906833333333E-02
      0.00000000000000E+00   0.00000000000000E+00  -1.77443679640981E-02  -7.88420069420113E-03  -2.56285686582992E-02
      2.91429350745831E-15   0.00000000000000E+00   0.00000000000000E+00   0.00000000000000E+00   0.00000000000000E+00
     -9.22182015701414E-01  -4.12574348854855E-01  -1.33475636455627E+00  -1.31608497129269E-15
      9.74319766666667E-03
      3.00000000000000E+00   3.00000000000000E+00   0.00000000000000E+00   0.00000000000000E+00   9.39881545509041E-01
      4.20439292649206E-01   1.36032083815825E+00  -1.96761165073973E-16   1.07175174333333E-01   1.07175174333333E-01
      0.00000000000000E+00   0.00000000000000E+00  -1.77011743597801E-02  -7.86569909626601E-03  -2.55668734560462E-02
      2.91528207988233E-15   0.00000000000000E+00   0.00000000000000E+00   0.00000000000000E+00   0.00000000000000E+00
     -9.22180371149262E-01  -4.12573593552940E-01  -1.33475396470220E+00  -1.31608241708238E-15
      1.39987211266667E-02
      3.00000000000000E+00   3.00000000000000E+00   0.00000000000000E+00   0.00000000000000E+00   9.39818973922022E-01
      4.20412483800752E-01   1.36023145772277E+00  -1.97108520971783E-16   1.53985932393333E-01   1.53985932393333E-01
      0.00000000000000E+00   0.00000000000000E+00  -1.76410746793464E-02  -7.84002468299311E-03  -2.54810993623396E-02
      2.91665486358015E-15   0.00000000000000E+00   0.00000000000000E+00   0.00000000000000E+00   0.00000000000000E+00
     -9.22177899242675E-01  -4.12572459117759E-01  -1.33475035836043E+00  -1.31607857607956E-15
      1.96443822502667E-02
      3.00000000000000E+00   3.00000000000000E+00   0.00000000000000E+00   0.00000000000000E+00   9.39730013219783E-01
      4.20374488082167E-01   1.36010450130195E+00  -1.97597876578317E-16   2.16088204752933E-01   2.16088204752933E-01
      0.00000000000000E+00   0.00000000000000E+00  -1.75559597863633E-02  -7.80379244922268E-03  -2.53597522355860E-02
      2.91859427527804E-15   0.00000000000000E+00   0.00000000000000E+00   0.00000000000000E+00   0.00000000000000E+00
     -9.22174053433420E-01  -4.12570695632945E-01  -1.33474474906636E+00  -1.31607259708510E-15
      2.71342926742427E-02
      3.00000000000000E+00   3.00000000000000E+00   0.00000000000000E+00   0.00000000000000E+00   9.39600131934955E-01
      4.20319241390494E-01   1.35991937332545E+00  -1.98303935688092E-16   2.98477219416669E-01   2.98477219416669E-01
      0.00000000000000E+00   0.00000000000000E+00  -1.74323258505925E-02  -7.75140788734978E-03  -2.51837337379423E-02
      2.92140325239863E-15   0.00000000000000E+00   0.00000000000000E+00   0.00000000000000E+00   0.00000000000000E+00
     -9.22167806084364E-01  -4.12567833503145E-01  -1.33473563958751E+00  -1.31606287898056E-15
      3.70709071700508E-02
      3.00000000000000E+00   3.00000000000000E+00   0.00000000000000E+00   0.00000000000000E+00   9.39402985759886E-01
      4.20235821451456E-01   1.35963880721134E+00  -1.99359793571473E-16   4.07779978870559E-01   4.07779978870559E-01
      0.00000000000000E+00   0.00000000000000E+00  -1.72459038763812E-02  -7.67289654694964E-03  -2.49188004233308E-02
      2.92562593376715E-15   0.00000000000000E+00   0.00000000000000E+00   0.00000000000000E+00   0.00000000000000E+00
     -9.22157081883520E-01  -4.12562924904513E-01  -1.33472000678803E+00  -1.31604618712478E-15
      5.02534824011563E-02
      3.00000000000000E+00   3.00000000000000E+00   0.00000000000000E+00   0.00000000000000E+00   9.39085342107356E-01
      4.20102303834691E-01   1.35918764594205E+00  -2.01030202741682E-16   5.52788306412720E-01   5.52788306412720E-01
      0.00000000000000E+00   0.00000000000000E+00  -1.69481114767005E-02  -7.54845680372870E-03  -2.44965682804292E-02
      2.93235527731773E-15   0.00000000000000E+00   0.00000000000000E+00   0.00000000000000E+00   0.00000000000000E+00
     -9.22137230630656E-01  -4.12553847030963E-01  -1.33469107766162E+00  -1.31601527114685E-15
      6.74347721190305E-02
      3.00000000000000E+00   3.00000000000000E+00   0.00000000000000E+00   0.00000000000000E+00   9.38532823227793E-01
      4.19872006154637E-01   1.35840482938243E+00  -2.03873478388659E-16   7.41782493309335E-01   7.41782493309335E-01
      0.00000000000000E+00   0.00000000000000E+00  -1.64359567628233E-02  -7.33660113865937E-03  -2.37725579014826E-02
      2.94393194291750E-15   0.00000000000000E+00   0.00000000000000E+00   0.00000000000000E+00   0.00000000000000E+00
     -9.22096866464970E-01  -4.12535405015978E-01  -1.33463227148095E+00  -1.31595237142895E-15
      8.98277197179932E-02
      3.00000000000000E+00   3.00000000000000E+00   0.00000000000000E+00   0.00000000000000E+00   9.37403479277184E-01
      4.19406388074147E-01   1.35680986735133E+00  -2.09549092379070E-16   9.88104916897925E-01   9.88104916897925E-01
      0.00000000000000E+00   0.00000000000000E+00  -1.54054354597879E-02  -6.91609539485488E-03  -2.23215308546428E-02
      2.96743726574759E-15   0.00000000000000E+00   0.00000000000000E+00   0.00000000000000E+00   0.00000000000000E+00
     -9.21998043817410E-01  -4.12490292679298E-01  -1.33448833649671E+00  -1.31579827653889E-15
      1.19013194755308E-01
      3.00000000000000E+00   3.00000000000000E+00   0.00000000000000E+00   0.00000000000000E+00   9.34371413844190E-01
      4.18172511305101E-01   1.35254392514929E+00  -2.24650017807231E-16   1.30914514230839E+00   1.30914514230839E+00
      0.00000000000000E+00   0.00000000000000E+00  -1.27026584905957E-02  -5.83241071181221E-03  -1.85350692024079E-02
      3.03176844964452E-15   0.00000000000000E+00   0.00000000000000E+00   0.00000000000000E+00   0.00000000000000E+00
     -9.21668755353595E-01  -4.12340100593289E-01  -1.33400885594688E+00  -1.31528436528506E-15
      1.56370602803071E-01
      3.00000000000000E+00   3.00000000000000E+00   0.00000000000000E+00   0.00000000000000E+00   9.25960972961446E-01
      4.14791850755192E-01   1.34075282371664E+00  -2.69815436698697E-16   1.72007663083378E+00   1.72007663083378E+00
      0.00000000000000E+00   0.00000000000000E+00  -5.52638539505775E-03  -3.01411600211724E-03  -8.54050139717499E-03
      3.23005128934692E-15   0.00000000000000E+00   0.00000000000000E+00   0.00000000000000E+00   0.00000000000000E+00
     -9.20434587566388E-01  -4.11777734753075E-01  -1.33221232231946E+00  -1.31335454253074E-15
      2.03316412249759E-01
      3.00000000000000E+00   3.00000000000000E+00   0.00000000000000E+00   0.00000000000000E+00   9.15428242687051E-01
      4.10667145247472E-01   1.32609538793452E+00  -3.40465342939532E-16   2.23648053474735E+00   2.23648053474735E+00
      0.00000000000000E+00   0.00000000000000E+00   2.43750300075589E-03  -5.85629761401259E-05   2.37894002461576E-03
      3.53112195146430E-15   0.00000000000000E+00   0.00000000000000E+00   0.00000000000000E+00   0.00000000000000E+00
     -9.17865745687808E-01  -4.10608582271332E-01  -1.32847432795914E+00  -1.30932195033551E-15
      2.28316412249759E-01
      3.00000000000000E+00   3.00000000000000E+00   0.00000000000000E+00   0.00000000000000E+00   9.13936451468947E-01
      4.10203010667994E-01   1.32413946213694E+00  -3.47851207530941E-16   2.51148053474735E+00   2.51148053474735E+00
      0.00000000000000E+00   0.00000000000000E+00   3.03739924182435E-03  -7.23565344203561E-09   3.03739200617091E-03
      3.55992226687939E-15   0.00000000000000E+00   0.00000000000000E+00   0.00000000000000E+00   0.00000000000000E+00
     -9.16973850710771E-01  -4.10203003432341E-01  -1.32717685414311E+00  -1.30791715399491E-15
      2.43733078916426E-01
      3.00000000000000E+00   3.00000000000000E+00   0.00000000000000E+00   0.00000000000000E+00   9.13077407473097E-01
      4.09944628408322E-01   1.32302203588142E+00  -3.52137110391705E-16   2.68106386808068E+00   2.68106386808068E+00
      0.00000000000000E+00   0.00000000000000E+00   3.32821325330639E-03  -1.51449294264444E-11   3.32821323816146E-03
      3.57408834791927E-15   0.00000000000000E+00   0.00000000000000E+00   0.00000000000000E+00   0.00000000000000E+00
     -9.16405620726402E-01  -4.09944628393177E-01  -1.32635024911958E+00  -1.30702100386274E-15
      2.62746967805315E-01
      3.00000000000000E+00   3.00000000000000E+00   0.00000000000000E+00   0.00000000000000E+00   9.11991358597564E-01
      4.09613988239983E-01   1.32160534683755E+00  -3.58381592879642E-16   2.89021664585846E+00   2.89021664585846E+00
      0.00000000000000E+00   0.00000000000000E+00   3.68708469846294E-03  -3.65569920913586E-15   3.68708469845928E-03
      3.59344114390543E-15   0.00000000000000E+00   0.00000000000000E+00   0.00000000000000E+00   0.00000000000000E+00
     -9.15678443296027E-01  -4.09613988239979E-01  -1.32529243153601E+00  -1.30587289445460E-15
      2.86641088175685E-01
      3.00000000000000E+00   3.00000000000000E+00   0.00000000000000E+00   0.00000000000000E+00   9.10650857381780E-01
      4.09202215406990E-01   1.31985307278877E+00  -3.67657369871193E-16   3.15305196993254E+00   3.15305196993254E+00
      0.00000000000000E+00   0.00000000000000E+00   4.12191451540006E-03   7.65244495392683E-15   4.12191451540771E-03
      3.62052488247225E-15   0.00000000000000E+00   0.00000000000000E+00   0.00000000000000E+00   0.00000000000000E+00
     -9.14772771897180E-01  -4.09202215406997E-01  -1.32397498730418E+00  -1.30444089160297E-15
      3.16110503299142E-01
      3.00000000000000E+00   3.00000000000000E+00   0.00000000000000E+00   0.00000000000000E+00   9.09078913436546E-01
      4.08715728364939E-01   1.31779464180148E+00  -3.81892064594885E-16   3.47721553629056E+00   3.47721553629056E+00
      0.00000000000000E+00   0.00000000000000E+00   4.62375407534067E-03   4.38931969210595E-15   4.62375407534506E-03
      3.66124521452790E-15   0.00000000000000E+00   0.00000000000000E+00   0.00000000000000E+00   0.00000000000000E+00
     -9.13702667511887E-01  -4.08715728364943E-01  -1.32241839587683E+00  -1.30274587293735E-15
      3.51768495598525E-01
      3.00000000000000E+00   3.00000000000000E+00   0.00000000000000E+00   0.00000000000000E+00   9.07312137098945E-01
      4.08165338501584E-01   1.31547747560053E+00  -4.07179312984548E-16   3.86945345158377E+00   3.86945345158377E+00
      0.00000000000000E+00   0.00000000000000E+00   5.17969756875987E-03   6.85339547973758E-15   5.17969756876672E-03
      3.73134614769296E-15   0.00000000000000E+00   0.00000000000000E+00   0.00000000000000E+00   0.00000000000000E+00
     -9.12491834667705E-01  -4.08165338501590E-01  -1.32065717316930E+00  -1.30082391077448E-15
      3.70013501658375E-01
      3.00000000000000E+00   3.00000000000000E+00   0.00000000000000E+00   0.00000000000000E+00   9.06444249859458E-01
      4.07893220475979E-01   1.31433747033544E+00  -4.28968223428802E-16   4.07014851824213E+00   4.07014851824213E+00
      0.00000000000000E+00   0.00000000000000E+00   5.44886181134019E-03   5.20177128790625E-15   5.44886181134539E-03
      3.78376583094670E-15   0.00000000000000E+00   0.00000000000000E+00   0.00000000000000E+00   0.00000000000000E+00
     -9.11893111670799E-01  -4.07893220475984E-01  -1.31978633214678E+00  -1.29987193816071E-15
      3.92941392606921E-01
      3.00000000000000E+00   3.00000000000000E+00   0.00000000000000E+00   0.00000000000000E+00   9.05381946860690E-01
      4.07558559703979E-01   1.31294050656467E+00  -4.90278373520918E-16   4.32235531867613E+00   4.32235531867613E+00
      0.00000000000000E+00   0.00000000000000E+00   5.77477189595961E-03   5.81968401286789E-15   5.77477189596543E-03
      3.89552011296820E-15   0.00000000000000E+00   0.00000000000000E+00   0.00000000000000E+00   0.00000000000000E+00
     -9.11156718756650E-01  -4.07558559703985E-01  -1.31871527846064E+00  -1.29869960476211E-15
      4.21219124776795E-01
      3.00000000000000E+00   3.00000000000000E+00   0.00000000000000E+00   0.00000000000000E+00   9.04178762996819E-01
      4.07180481373104E-01   1.31135924436992E+00  -9.86884768254282E-16   4.63341037254474E+00   4.63341037254474E+00
      0.00000000000000E+00   0.00000000000000E+00   6.14594750546392E-03   7.86687889970363E-15   6.14594750547179E-03
      4.47945848040855E-15   0.00000000000000E+00   0.00000000000000E+00   0.00000000000000E+00   0.00000000000000E+00
     -9.10324710502283E-01  -4.07180481373112E-01  -1.31750519187540E+00  -1.29737309377151E-15
      4.55435180702341E-01
      3.00000000000000E+00   3.00000000000000E+00   0.00000000000000E+00   0.00000000000000E+00   9.02794213225820E-01
      4.06750571084406E-01   1.30954478431023E+00  -2.76777273075224E-15   5.00978698772575E+00   5.00978698772575E+00
      0.00000000000000E+00   0.00000000000000E+00   6.58431210085788E-03   4.22566397106667E-15   6.58431210086210E-03
      6.42050183102709E-15   0.00000000000000E+00   0.00000000000000E+00   0.00000000000000E+00   0.00000000000000E+00
     -9.09378525326679E-01  -4.06750571084410E-01  -1.31612909641109E+00  -1.29586197431177E-15
      4.96836608372253E-01
      3.00000000000000E+00   3.00000000000000E+00   0.00000000000000E+00   0.00000000000000E+00   9.01181518981478E-01
      4.06255182842106E-01   1.30743670182358E+00  -5.67082347546665E-15   5.46520269209478E+00   5.46520269209478E+00
      0.00000000000000E+00   0.00000000000000E+00   7.10657123606982E-03   8.36001038059717E-15   7.10657123607818E-03
      9.61361279161109E-15   0.00000000000000E+00   0.00000000000000E+00   0.00000000000000E+00   0.00000000000000E+00
     -9.08288090217548E-01  -4.06255182842114E-01  -1.31454327305966E+00  -1.29411708248195E-15
      5.46836608372253E-01
      3.00000000000000E+00   3.00000000000000E+00   0.00000000000000E+00   0.00000000000000E+00   8.99325060502286E-01
      4.05689453638938E-01   1.30501451414122E+00  -9.88172781457525E-15   6.01520269209478E+00   6.01520269209478E+00
      0.00000000000000E+00   0.00000000000000E+00   7.71763915905188E-03   5.79887326502465E-15   7.71763915905768E-03
      1.43088481033494E-14   0.00000000000000E+00   0.00000000000000E+00   0.00000000000000E+00   0.00000000000000E+00
     -9.07042699661337E-01  -4.05689453638943E-01  -1.31273215330028E+00  -1.29211986524033E-15
      5.96836608372253E-01
      3.00000000000000E+00   3.00000000000000E+00   0.00000000000000E+00   0.00000000000000E+00   8.97675507457502E-01
      4.05193831947011E-01   1.30286933940451E+00  -1.49141274150529E-14   6.56520269209478E+00   6.56520269209478E+00
      0.00000000000000E+00   0.00000000000000E+00   8.27579456535105E-03   9.58026939113371E-15   8.27579456536063E-03
      1.99580734429529E-14   0.00000000000000E+00   0.00000000000000E+00   0.00000000000000E+00   0.00000000000000E+00
     -9.05951302022853E-01  -4.05193831947020E-01  -1.31114513396987E+00  -1.29036535316237E-15
      6.46836608372253E-01
      3.00000000000000E+00   3.00000000000000E+00   0.00000000000000E+00   0.00000000000000E+00   8.96107960189081E-01
      4.04726296446118E-01   1.30083425663520E+00  -2.05110928418439E-14   7.11520269209478E+00   7.11520269209478E+00
      0.00000000000000E+00   0.00000000000000E+00   8.81339870891482E-03   2.73944360309345E-14   8.81339870894222E-03
      2.62412484731931E-14   0.00000000000000E+00   0.00000000000000E+00   0.00000000000000E+00   0.00000000000000E+00
     -9.04921358897997E-01  -4.04726296446146E-01  -1.30964765534414E+00  -1.28870576656950E-15
      6.96836608372253E-01
      3.00000000000000E+00   3.00000000000000E+00   0.00000000000000E+00   0.00000000000000E+00   8.94611477012209E-01
      4.04280113036587E-01   1.29889159004880E+00  -2.66122281823754E-14   7.66520269209478E+00   7.66520269209478E+00
      0.00000000000000E+00   0.00000000000000E+00   9.32686935600030E-03   8.84440134739655E-15   9.32686935600915E-03
      3.30737417259238E-14   0.00000000000000E+00   0.00000000000000E+00   0.00000000000000E+00   0.00000000000000E+00
     -9.03938346368209E-01  -4.04280113036596E-01  -1.30821845940480E+00  -1.28711872570898E-15
      7.46836608372253E-01
      3.00000000000000E+00   3.00000000000000E+00   0.00000000000000E+00   0.00000000000000E+00   8.93194512336005E-01
      4.03858557671994E-01   1.29705307000800E+00  -3.30839925810021E-14   8.21520269209478E+00   8.21520269209478E+00