DF-ISE text

Info {
  version   = 1.0
  type      = xyplot
  datasets  = [
    "time"
    "baze OuterVoltage" "baze InnerVoltage" "baze QuasiFermiPotential" "baze DisplacementCurrent" "baze eCurrent"
    "baze hCurrent" "baze TotalCurrent" "baze Charge" "koll_c0 OuterVoltage" "koll_c0 InnerVoltage"
    "koll_c0 QuasiFermiPotential" "koll_c0 DisplacementCurrent" "koll_c0 eCurrent" "koll_c0 hCurrent" "koll_c0 TotalCurrent"
    "koll_c0 Charge" "emit OuterVoltage" "emit InnerVoltage" "emit QuasiFermiPotential" "emit DisplacementCurrent"
    "emit eCurrent" "emit hCurrent" "emit TotalCurrent" "emit Charge" ]
  functions = [
    Time
    OuterVoltage InnerVoltage QuasiFermiPotential DisplacementCurrent eCurrent
    hCurrent TotalCurrent Charge OuterVoltage InnerVoltage
    QuasiFermiPotential DisplacementCurrent eCurrent hCurrent TotalCurrent
    Charge OuterVoltage InnerVoltage QuasiFermiPotential DisplacementCurrent
    eCurrent hCurrent TotalCurrent Charge ]
}

Data {
      0.00000000000000E+00
      0.00000000000000E+00   0.00000000000000E+00   0.00000000000000E+00   0.00000000000000E+00   1.03567918102409E-23
     -1.82040065910567E-21  -1.81004386729543E-21  -6.06289444526481E-13   0.00000000000000E+00   0.00000000000000E+00
      0.00000000000000E+00   0.00000000000000E+00  -1.03568012983314E-23   1.82040089998877E-21   1.81004409869044E-21
      5.07565828987164E-13   0.00000000000000E+00   0.00000000000000E+00   0.00000000000000E+00   0.00000000000000E+00
      2.69597017855223E-30  -2.74605962534141E-28  -2.71909992355589E-28   1.19882219900828E-13
      0.00000000000000E+00
      4.32855061985353E-12   4.32855061985353E-12   0.00000000000000E+00   0.00000000000000E+00  -2.12815070664782E-25
     -2.04180906210799E-24  -2.25462413277277E-24  -6.06289444290086E-13   0.00000000000000E+00   0.00000000000000E+00
      0.00000000000000E+00   0.00000000000000E+00   2.12795518280206E-25   2.04898016381791E-24   2.26177568209811E-24
      5.07565828751301E-13   0.00000000000000E+00   0.00000000000000E+00   0.00000000000000E+00   0.00000000000000E+00
      2.01093143585504E-29  -7.83566324502646E-28  -7.63457010144096E-28   1.19882219900217E-13
      1.00000000000000E-02
      4.00000000042853E-02   4.00000000042853E-02   0.00000000000000E+00   0.00000000000000E+00   4.64442883350165E-16
      2.02262203979329E-16   6.66705087329494E-16  -5.79541999981613E-13   0.00000000000000E+00   0.00000000000000E+00
      0.00000000000000E+00   0.00000000000000E+00  -4.64142264876744E-16  -1.83421890004897E-16  -6.47564154881641E-16
      4.85432268952093E-13   0.00000000000000E+00   0.00000000000000E+00   0.00000000000000E+00   0.00000000000000E+00
     -3.00871671744886E-19  -1.88428232977441E-17  -1.91436949694890E-17   1.14238106140198E-13
      2.28000000000000E-02
      9.12000000042299E-02   9.12000000042299E-02   0.00000000000000E+00   0.00000000000000E+00   4.13666440595091E-15
      1.80302002754007E-15   5.93968443349098E-15  -5.44490808500426E-13   0.00000000000000E+00   0.00000000000000E+00
      0.00000000000000E+00   0.00000000000000E+00  -4.13398947453007E-15  -1.63694735897253E-15  -5.77093683350260E-15
      4.56247456044538E-13   0.00000000000000E+00   0.00000000000000E+00   0.00000000000000E+00   0.00000000000000E+00
     -2.67493153034685E-18  -1.66072673934984E-16  -1.68747605465331E-16   1.07013139749648E-13
      3.94826666666667E-02
      1.57930666670824E-01   1.57930666670824E-01   0.00000000000000E+00   0.00000000000000E+00   5.61301541024753E-14
      2.44201036514883E-14   8.05502577539636E-14  -4.97275348378208E-13   0.00000000000000E+00   0.00000000000000E+00
      0.00000000000000E+00   0.00000000000000E+00  -5.60939899019541E-14  -2.22054581588737E-14  -7.82994480608278E-14
      4.16667985909085E-13   0.00000000000000E+00   0.00000000000000E+00   0.00000000000000E+00   0.00000000000000E+00
     -3.61642005223395E-17  -2.21464549269062E-15  -2.25080969321296E-15   9.75957739691754E-14
      6.12257422222222E-02
      2.44902968892952E-01   2.44902968892952E-01   0.00000000000000E+00   0.00000000000000E+00   1.62590220951840E-12
      7.05152525707372E-13   2.33105473522577E-12  -4.32547752252315E-13   0.00000000000000E+00   0.00000000000000E+00
      0.00000000000000E+00   0.00000000000000E+00  -1.62486118061988E-12  -6.42601253454175E-13  -2.26746243407405E-12
      3.61892343837704E-13   0.00000000000000E+00   0.00000000000000E+00   0.00000000000000E+00   0.00000000000000E+00
     -1.04102889906314E-15  -6.25512722572543E-14  -6.35923011563174E-14   8.53204413082292E-14
      8.95642173629630E-02
      3.58256869455793E-01   3.58256869455793E-01   0.00000000000000E+00   0.00000000000000E+00   1.30401190667063E-10
      5.62939175639272E-11   1.86695108230991E-10  -3.40492688753907E-13   0.00000000000000E+00   0.00000000000000E+00
      0.00000000000000E+00   0.00000000000000E+00  -1.30318456961021E-10  -5.14542508384546E-11  -1.81772707799475E-10
      2.82810120154177E-13   0.00000000000000E+00   0.00000000000000E+00   0.00000000000000E+00   0.00000000000000E+00
     -8.27337665240338E-14  -4.83966726197056E-12  -4.92240102849459E-12   6.93193508052122E-14
      1.26498696629728E-01
      5.05994786522695E-01   5.05994786522695E-01   0.00000000000000E+00   0.00000000000000E+00   3.94864080352007E-08
      1.69213036273294E-08   5.64077116625300E-08  -1.97857557732242E-13   0.00000000000000E+00   0.00000000000000E+00
      0.00000000000000E+00   0.00000000000000E+00  -3.94487611274904E-08  -1.55295142323680E-08  -5.49782753598584E-08
      1.57087864258434E-13   0.00000000000000E+00   0.00000000000000E+00   0.00000000000000E+00   0.00000000000000E+00
     -3.76469077107031E-11  -1.39178939496523E-09  -1.42943630267593E-09   4.84611851815871E-14
      1.73774830091188E-01
      6.95099320368329E-01   6.95099320368329E-01   0.00000000000000E+00   0.00000000000000E+00   3.21270309416471E-05
      1.60391548479331E-05   4.81661857895802E-05  -3.81506040173847E-14   0.00000000000000E+00   0.00000000000000E+00
      0.00000000000000E+00   0.00000000000000E+00  -2.65501212558299E-05  -1.41790243021860E-05  -4.07291455580158E-05
      1.95469206529458E-14   0.00000000000000E+00   0.00000000000000E+00   0.00000000000000E+00   0.00000000000000E+00
     -5.57690968583181E-06  -1.86013054582299E-06  -7.43704023165480E-06   2.19218516874530E-14
      2.03480000616139E-01
      8.13920002468003E-01   8.13920002468003E-01   0.00000000000000E+00   0.00000000000000E+00   6.30229197996462E-04
      2.78520560326865E-04   9.08749758323327E-04  -1.12032054058544E-14   0.00000000000000E+00   0.00000000000000E+00
      0.00000000000000E+00   0.00000000000000E+00  -2.61401934757811E-04  -1.70061405451910E-04  -4.31463340209721E-04
      4.86887529312199E-15   0.00000000000000E+00   0.00000000000000E+00   0.00000000000000E+00   0.00000000000000E+00
     -3.68827263243597E-04  -1.08459154883116E-04  -4.77286418126712E-04   8.14253689733123E-15
      2.21798189106525E-01
      8.87192756429468E-01   8.87192756429468E-01   0.00000000000000E+00   0.00000000000000E+00   2.57040009433041E-03
      1.07040757779301E-03   3.64080767212342E-03  -5.39602712923578E-15   0.00000000000000E+00   0.00000000000000E+00
      0.00000000000000E+00   0.00000000000000E+00  -6.91731763623925E-04  -4.18616226329696E-04  -1.11034798995362E-03
      2.55634949964194E-15   0.00000000000000E+00   0.00000000000000E+00   0.00000000000000E+00   0.00000000000000E+00
     -1.87866833071198E-03  -6.51791351469055E-04  -2.53045968218104E-03   4.06231130591132E-15
      2.44818045976110E-01
      9.79272183907710E-01   9.79272183907710E-01   0.00000000000000E+00   0.00000000000000E+00   9.25470761503245E-03
      3.80085732561471E-03   1.30555649406472E-02  -2.59277093179763E-15   0.00000000000000E+00   0.00000000000000E+00
      0.00000000000000E+00   0.00000000000000E+00  -1.63497769125038E-03  -8.99456167312636E-04  -2.53443385856302E-03
      1.39852473460020E-15   0.00000000000000E+00   0.00000000000000E+00   0.00000000000000E+00   0.00000000000000E+00
     -7.61972992378207E-03  -2.90140115830208E-03  -1.05211310820841E-02   2.01674605723126E-15
      2.73746332775556E-01
      1.09498533110537E+00   1.09498533110537E+00   0.00000000000000E+00   0.00000000000000E+00   2.69536948036011E-02
      1.11648985662905E-02   3.81185933698915E-02  -1.19749934506642E-15   0.00000000000000E+00   0.00000000000000E+00
      0.00000000000000E+00   0.00000000000000E+00  -3.37471246194432E-03  -1.71197286124588E-03  -5.08668532319020E-03
      7.70487623719100E-16   0.00000000000000E+00   0.00000000000000E+00   0.00000000000000E+00   0.00000000000000E+00
     -2.35789823416377E-02  -9.45292570507672E-03  -3.30319080467144E-02   1.02841705024698E-15
      3.10774539878846E-01
      1.24309815951837E+00   1.24309815951837E+00   0.00000000000000E+00   0.00000000000000E+00   6.53447259863234E-02
      2.74446308153620E-02   9.27893568016854E-02  -3.54151722158874E-16   0.00000000000000E+00   0.00000000000000E+00
      0.00000000000000E+00   0.00000000000000E+00  -6.13761603900163E-03  -2.93275297753026E-03  -9.07036901653189E-03
      4.07737607444382E-16   0.00000000000000E+00   0.00000000000000E+00   0.00000000000000E+00   0.00000000000000E+00
     -5.92071099473326E-02  -2.45118778378407E-02  -8.37189877851733E-02   4.46736946894509E-16
      3.58170644971058E-01
      1.43268257988701E+00   1.43268257988701E+00   0.00000000000000E+00   0.00000000000000E+00   1.36217529989793E-01
      5.79039123150520E-02   1.94121442304845E-01   2.23728832383658E-16   0.00000000000000E+00   0.00000000000000E+00
      0.00000000000000E+00   0.00000000000000E+00  -9.71990463120098E-03  -4.46472116720744E-03  -1.41846257984084E-02
      2.37785329134931E-16   0.00000000000000E+00   0.00000000000000E+00   0.00000000000000E+00   0.00000000000000E+00
     -1.26497625358594E-01  -5.34391911478454E-02  -1.79936816506439E-01   2.42230548319384E-17
      4.18837659489088E-01
      1.67535063795887E+00   1.67535063795887E+00   0.00000000000000E+00   0.00000000000000E+00   2.51101125607906E-01
      1.07842913972645E-01   3.58944039580552E-01   6.04212227056622E-16   0.00000000000000E+00   0.00000000000000E+00
      0.00000000000000E+00   0.00000000000000E+00  -1.31625290745293E-02  -5.91665476702785E-03  -1.90791838415571E-02
      2.79904236289025E-16   0.00000000000000E+00   0.00000000000000E+00   0.00000000000000E+00   0.00000000000000E+00
     -2.37938596533377E-01  -1.01926259205617E-01  -3.39864855738995E-01  -3.35065813994718E-16
      4.96491438072168E-01
      1.98596575229085E+00   1.98596575229085E+00   0.00000000000000E+00   0.00000000000000E+00   4.17161806284366E-01
      1.81058712983501E-01   5.98220519267867E-01   7.52683733190356E-16   0.00000000000000E+00   0.00000000000000E+00
      0.00000000000000E+00   0.00000000000000E+00  -1.54886410689232E-02  -6.90227749109651E-03  -2.23909185600197E-02
      6.10213062183997E-16   0.00000000000000E+00   0.00000000000000E+00   0.00000000000000E+00   0.00000000000000E+00
     -4.01673165215443E-01  -1.74156435492404E-01  -5.75829600707847E-01  -6.65881962802583E-16
      5.95888274658510E-01
      2.38355309863579E+00   2.38355309863579E+00   0.00000000000000E+00   0.00000000000000E+00   6.32759263332452E-01
      2.78040687887007E-01   9.10799951219459E-01   5.75095326226787E-16   0.00000000000000E+00   0.00000000000000E+00
      0.00000000000000E+00   0.00000000000000E+00  -1.68549341296729E-02  -7.49289309976129E-03  -2.43478272294342E-02
      1.34352393870132E-15   0.00000000000000E+00   0.00000000000000E+00   0.00000000000000E+00   0.00000000000000E+00
     -6.15904329202779E-01  -2.70547794787245E-01  -8.86452123990024E-01  -9.75639189376195E-16
      7.23116225489027E-01
      2.89246490195731E+00   2.89246490195731E+00   0.00000000000000E+00   0.00000000000000E+00   8.89211791876337E-01
      3.96581707133286E-01   1.28579349900962E+00  -3.46836962871595E-17   0.00000000000000E+00   0.00000000000000E+00
      0.00000000000000E+00   0.00000000000000E+00  -1.77059910785667E-02  -7.86663844123062E-03  -2.55726295197973E-02
      2.61445465251602E-15   0.00000000000000E+00   0.00000000000000E+00   0.00000000000000E+00   0.00000000000000E+00
     -8.71505800797770E-01  -3.88715068692055E-01  -1.26022086948983E+00  -1.26491740686079E-15
      8.85968002552089E-01
      3.54387201020885E+00   3.54387201020885E+00   0.00000000000000E+00   0.00000000000000E+00   1.18148928945973E+00
      5.36077789231187E-01   1.71756707869092E+00  -1.06839302663561E-15   0.00000000000000E+00   0.00000000000000E+00
      0.00000000000000E+00   0.00000000000000E+00  -1.82801100393582E-02  -8.11612840462358E-03  -2.63962384439818E-02
      4.47624049612140E-15   0.00000000000000E+00   0.00000000000000E+00   0.00000000000000E+00   0.00000000000000E+00
     -1.16320917943587E+00  -5.27961660834903E-01  -1.69117084027078E+00  -1.54158249902953E-15
      1.00000000000000E+00
      4.00000000000000E+00   4.00000000000000E+00   0.00000000000000E+00   0.00000000000000E+00   1.36833580148429E+00
      6.27503592926014E-01   1.99583939441031E+00  -1.77895938043484E-15   0.00000000000000E+00   0.00000000000000E+00
      0.00000000000000E+00   0.00000000000000E+00  -1.85338529116832E-02  -8.22382494836372E-03  -2.67576778600469E-02
      5.78043069704717E-15   0.00000000000000E+00   0.00000000000000E+00   0.00000000000000E+00   0.00000000000000E+00
     -1.34980194857261E+00  -6.19279767977653E-01  -1.96908171655026E+00  -1.70192951679245E-15
      1.00000000000000E-03
      4.00000000000000E+00   4.00000000000000E+00   0.00000000000000E+00   0.00000000000000E+00   1.36833032578658E+00
      6.27501091732890E-01   1.99583141751947E+00  -1.77899165440674E-15   1.10000000000000E-02   1.10000000000000E-02
      0.00000000000000E+00   0.00000000000000E+00  -1.85283812536725E-02  -8.22132649823144E-03  -2.67497077519039E-02
      5.78058983743430E-15   0.00000000000000E+00   0.00000000000000E+00   0.00000000000000E+00   0.00000000000000E+00
     -1.34980194453406E+00  -6.19279765235139E-01  -1.96908170976919E+00  -1.70192951049620E-15
      2.32666666666667E-03
      4.00000000000000E+00   4.00000000000000E+00   0.00000000000000E+00   0.00000000000000E+00   1.36832299218930E+00
      6.27497744688805E-01   1.99582073687811E+00  -1.77903475042563E-15   2.55933333333333E-02   2.55933333333333E-02
      0.00000000000000E+00   0.00000000000000E+00  -1.85210602691973E-02  -8.21798646875249E-03  -2.67390467379498E-02
      5.78080248160475E-15   0.00000000000000E+00   0.00000000000000E+00   0.00000000000000E+00   0.00000000000000E+00
     -1.34980193192012E+00  -6.19279758220058E-01  -1.96908169014018E+00  -1.70192949271387E-15
      4.11766666666667E-03
      4.00000000000000E+00   4.00000000000000E+00   0.00000000000000E+00   0.00000000000000E+00   1.36831296457623E+00
      6.27493173228392E-01   1.99580613780463E+00  -1.77909344278036E-15   4.52943333333333E-02   4.52943333333333E-02
      0.00000000000000E+00   0.00000000000000E+00  -1.85110631046187E-02  -8.21343072354238E-03  -2.67244938281611E-02
      5.78109234172825E-15   0.00000000000000E+00   0.00000000000000E+00   0.00000000000000E+00   0.00000000000000E+00
     -1.34980190147167E+00  -6.19279742504869E-01  -1.96908164397654E+00  -1.70192945126962E-15
      6.53551666666667E-03
      4.00000000000000E+00   4.00000000000000E+00   0.00000000000000E+00   0.00000000000000E+00   1.36829918997778E+00
      6.27486903065762E-01   1.99578609304355E+00  -1.77917363130375E-15   7.18906833333333E-02   7.18906833333333E-02
      0.00000000000000E+00   0.00000000000000E+00  -1.84973548103775E-02  -8.20719350246356E-03  -2.67045483128411E-02
      5.78148885261961E-15   0.00000000000000E+00   0.00000000000000E+00   0.00000000000000E+00   0.00000000000000E+00
     -1.34980183516758E+00  -6.19279709563369E-01  -1.96908154473095E+00  -1.70192936257592E-15
      9.79961416666667E-03
      4.00000000000000E+00   4.00000000000000E+00   0.00000000000000E+00   0.00000000000000E+00   1.36828014804140E+00
      6.27478252908453E-01   1.99575840094985E+00  -1.77928367406543E-15   1.07795755833333E-01   1.07795755833333E-01
      0.00000000000000E+00   0.00000000000000E+00  -1.84784501432766E-02  -8.19861003986671E-03  -2.66770601831433E-02
      5.78203390991189E-15   0.00000000000000E+00   0.00000000000000E+00   0.00000000000000E+00   0.00000000000000E+00
     -1.34980169789812E+00  -6.19279642868587E-01  -1.96908134076671E+00  -1.70192918078065E-15
      1.41299835166667E-02
      4.00000000000000E+00   4.00000000000000E+00   0.00000000000000E+00   0.00000000000000E+00   1.36825406023893E+00
      6.27466434312321E-01   1.99572049455125E+00  -1.77943295903982E-15   1.55429818683333E-01   1.55429818683333E-01
      0.00000000000000E+00   0.00000000000000E+00  -1.84526339094372E-02  -8.18692155185368E-03  -2.66395554612909E-02
      5.78277507420512E-15   0.00000000000000E+00   0.00000000000000E+00   0.00000000000000E+00   0.00000000000000E+00
     -1.34980142632949E+00  -6.19279512760468E-01  -1.96908093908996E+00  -1.70192882335815E-15
      1.98749401876667E-02
      4.00000000000000E+00   4.00000000000000E+00   0.00000000000000E+00   0.00000000000000E+00   1.36821791245973E+00
      6.27450117052207E-01   1.99566802951193E+00  -1.77963712673388E-15   2.18624342064333E-01   2.18624342064333E-01
      0.00000000000000E+00   0.00000000000000E+00  -1.84170150203124E-02  -8.17085535659112E-03  -2.65878703769035E-02
      5.78379197700067E-15   0.00000000000000E+00   0.00000000000000E+00   0.00000000000000E+00   0.00000000000000E+00
     -1.34980089743941E+00  -6.19279261695616E-01  -1.96908015913503E+00  -1.70192813009224E-15
      2.74965827045267E-02
      4.00000000000000E+00   4.00000000000000E+00   0.00000000000000E+00   0.00000000000000E+00   1.36816703313202E+00
      6.27427258086887E-01   1.99559429121891E+00  -1.77991957555848E-15   3.02462409749793E-01   3.02462409749793E-01
      0.00000000000000E+00   0.00000000000000E+00  -1.83671620890602E-02  -8.14848056789523E-03  -2.65156426569554E-02
      5.78520502329357E-15   0.00000000000000E+00   0.00000000000000E+00   0.00000000000000E+00   0.00000000000000E+00
     -1.34979987104296E+00  -6.19278777518992E-01  -1.96907864856195E+00  -1.70192678841606E-15
      3.76079617768943E-02
      4.00000000000000E+00   4.00000000000000E+00   0.00000000000000E+00   0.00000000000000E+00   1.36809381961598E+00
      6.27394565827941E-01   1.99548838544392E+00  -1.78031689381931E-15   4.13687579545837E-01   4.13687579545837E-01
      0.00000000000000E+00   0.00000000000000E+00  -1.82959530021442E-02  -8.11672970743912E-03  -2.64126827095833E-02
      5.78720496076712E-15   0.00000000000000E+00   0.00000000000000E+00   0.00000000000000E+00   0.00000000000000E+00
     -1.34979786661384E+00  -6.19277836120502E-01  -1.96907570273434E+00  -1.70192417332848E-15
      5.10223913462353E-02
      4.00000000000000E+00   4.00000000000000E+00   0.00000000000000E+00   0.00000000000000E+00   1.36798506166981E+00
      6.27346381006427E-01   1.99533144267624E+00  -1.78088999763589E-15   5.61246304808588E-01   5.61246304808588E-01
      0.00000000000000E+00   0.00000000000000E+00  -1.81911778627562E-02  -8.07040964462642E-03  -2.62615875073826E-02
      5.79011417499672E-15   0.00000000000000E+00   0.00000000000000E+00   0.00000000000000E+00   0.00000000000000E+00
     -1.34979388380706E+00  -6.19275971361802E-01  -1.96906985516887E+00  -1.70191898422062E-15
      6.88188679082277E-02
      4.00000000000000E+00   4.00000000000000E+00   0.00000000000000E+00   0.00000000000000E+00   1.36781561176910E+00
      6.27272049186065E-01   1.99508766095516E+00  -1.78174968277224E-15   7.57007546990505E-01   7.57007546990505E-01
      0.00000000000000E+00   0.00000000000000E+00  -1.80299259196281E-02  -7.99990754641772E-03  -2.60298334660458E-02
      5.79452895991184E-15   0.00000000000000E+00   0.00000000000000E+00   0.00000000000000E+00   0.00000000000000E+00
     -1.34978568584947E+00  -6.19272141639647E-01  -1.96905782748911E+00  -1.70190831373779E-15
      9.20136090273578E-02
      4.00000000000000E+00   4.00000000000000E+00   0.00000000000000E+00   0.00000000000000E+00   1.36753644036792E+00
      6.27151134911920E-01   1.99468757527984E+00  -1.78309749886489E-15   1.01214969930094E+00   1.01214969930094E+00
      0.00000000000000E+00   0.00000000000000E+00  -1.77684654168995E-02  -7.88725334582079E-03  -2.56557187627203E-02
      5.80156419811100E-15   0.00000000000000E+00   0.00000000000000E+00   0.00000000000000E+00   0.00000000000000E+00
     -1.34976797495102E+00  -6.19263881566099E-01  -1.96903185651712E+00  -1.70188527764003E-15
      1.22244088285957E-01
      4.00000000000000E+00   4.00000000000000E+00   0.00000000000000E+00   0.00000000000000E+00   1.36701568387387E+00
      6.26929281113443E-01   1.99394496498731E+00  -1.78545182338264E-15   1.34468497114553E+00   1.34468497114553E+00
      0.00000000000000E+00   0.00000000000000E+00  -1.72909370055016E-02  -7.68553525377916E-03  -2.49764722592808E-02
      5.81415602527239E-15   0.00000000000000E+00   0.00000000000000E+00   0.00000000000000E+00   0.00000000000000E+00
     -1.34972474686837E+00  -6.19243745859664E-01  -1.96896849272803E+00  -1.70182908098166E-15
      1.61644479586332E-01
      4.00000000000000E+00   4.00000000000000E+00   0.00000000000000E+00   0.00000000000000E+00   1.36577876267175E+00
      6.26412660901521E-01   1.99219142357327E+00  -1.79062704857754E-15   1.77808927544965E+00   1.77808927544965E+00
      0.00000000000000E+00   0.00000000000000E+00  -1.61867545862330E-02  -7.23068872433613E-03  -2.34174433105692E-02
      5.84283067178418E-15   0.00000000000000E+00   0.00000000000000E+00   0.00000000000000E+00   0.00000000000000E+00
     -1.34959200808551E+00  -6.19181972177186E-01  -1.96877398026270E+00  -1.70165657096299E-15
      2.11644479586332E-01
      4.00000000000000E+00   4.00000000000000E+00   0.00000000000000E+00   0.00000000000000E+00   1.36096373074168E+00
      6.24447735996216E-01   1.98541146673790E+00  -1.80951505272144E-15   2.32808927544965E+00   2.32808927544965E+00
      0.00000000000000E+00   0.00000000000000E+00  -1.20534522849708E-02  -5.58278609607128E-03  -1.76362383810421E-02
      5.95328686712247E-15   0.00000000000000E+00   0.00000000000000E+00   0.00000000000000E+00   0.00000000000000E+00
     -1.34891027845676E+00  -6.18864949900166E-01  -1.96777522835693E+00  -1.70077041744638E-15
      2.61644479586332E-01
      4.00000000000000E+00   4.00000000000000E+00   0.00000000000000E+00   0.00000000000000E+00   1.34825872118796E+00
      6.19351413421091E-01   1.96761013460905E+00  -1.86412357398716E-15   2.87808927544965E+00   2.87808927544965E+00
      0.00000000000000E+00   0.00000000000000E+00  -1.84275949638416E-03  -1.64548841731143E-03  -3.48824791369559E-03
      6.27675809169750E-15   0.00000000000000E+00   0.00000000000000E+00   0.00000000000000E+00   0.00000000000000E+00
     -1.34641596169159E+00  -6.17705925003788E-01  -1.96412188669538E+00  -1.69752253604745E-15
      3.11644479586332E-01
      4.00000000000000E+00   4.00000000000000E+00   0.00000000000000E+00   0.00000000000000E+00   1.34056418524220E+00
      6.16450472988638E-01   1.95701465823084E+00  -1.89899574572027E-15   3.42808927544965E+00   3.42808927544965E+00
      0.00000000000000E+00   0.00000000000000E+00   3.14732775343902E-03  -8.22269548761524E-08   3.14724552648414E-03
      6.47881518861034E-15   0.00000000000000E+00   0.00000000000000E+00   0.00000000000000E+00   0.00000000000000E+00
     -1.34371151299564E+00  -6.16450390761683E-01  -1.96016190375733E+00  -1.69399113165294E-15
      3.36644479586332E-01
      4.00000000000000E+00   4.00000000000000E+00   0.00000000000000E+00   0.00000000000000E+00   1.33906345434654E+00
      6.15985749983521E-01   1.95504920433006E+00  -1.90182751216035E-15   3.70308927544965E+00   3.70308927544965E+00
      0.00000000000000E+00   0.00000000000000E+00   3.64674277859285E-03  -3.98192249883120E-12   3.64674277461093E-03
      6.49946939773914E-15   0.00000000000000E+00   0.00000000000000E+00   0.00000000000000E+00   0.00000000000000E+00
     -1.34271019712513E+00  -6.15985749979539E-01  -1.95869594710467E+00  -1.69268114598663E-15
      3.66894479586332E-01
      4.00000000000000E+00   4.00000000000000E+00   0.00000000000000E+00   0.00000000000000E+00   1.33721038483479E+00
      6.15403765573931E-01   1.95261415040872E+00  -1.90674792488959E-15   4.03583927544965E+00   4.03583927544965E+00
      0.00000000000000E+00   0.00000000000000E+00   4.24551542591831E-03  -2.08640233577241E-15   4.24551542591622E-03
      6.52791680589567E-15   0.00000000000000E+00   0.00000000000000E+00   0.00000000000000E+00   0.00000000000000E+00
     -1.34145590026071E+00  -6.15403765573929E-01  -1.95685966583463E+00  -1.69103787161246E-15
      4.03496979586332E-01
      4.00000000000000E+00   4.00000000000000E+00   0.00000000000000E+00   0.00000000000000E+00   1.33508993112153E+00
      6.14731843142989E-01   1.94982177426452E+00  -1.91497864189066E-15   4.43846677544965E+00   4.43846677544965E+00
      0.00000000000000E+00   0.00000000000000E+00   4.91764043900055E-03  -6.70272566535248E-16   4.91764043899988E-03
      6.56684704781579E-15   0.00000000000000E+00   0.00000000000000E+00   0.00000000000000E+00   0.00000000000000E+00
     -1.34000757156053E+00  -6.14731843142989E-01  -1.95473941470352E+00  -1.68913709229189E-15
      4.43515712919666E-01
      4.00000000000000E+00   4.00000000000000E+00   0.00000000000000E+00   0.00000000000000E+00   1.33294476118443E+00
      6.14047193920157E-01   1.94699195510459E+00  -1.92832448927187E-15   4.87867284211632E+00   4.87867284211632E+00
      0.00000000000000E+00   0.00000000000000E+00   5.58681021808174E-03   5.39081612131429E-15   5.58681021808713E-03
      6.62273545323027E-15   0.00000000000000E+00   0.00000000000000E+00   0.00000000000000E+00   0.00000000000000E+00
     -1.33853157140251E+00  -6.14047193920163E-01  -1.95257876532267E+00  -1.68719628948050E-15
      4.88203298475221E-01
      4.00000000000000E+00   4.00000000000000E+00   0.00000000000000E+00   0.00000000000000E+00   1.33074712783415E+00
      6.13340564103111E-01   1.94408769193726E+00  -1.95628026037434E-15   5.37023628322743E+00   5.37023628322743E+00
      0.00000000000000E+00   0.00000000000000E+00   6.26077702390980E-03   8.37191412836351E-15   6.26077702391817E-03
      6.71974537508654E-15   0.00000000000000E+00   0.00000000000000E+00   0.00000000000000E+00   0.00000000000000E+00
     -1.33700790485806E+00  -6.13340564103120E-01  -1.95034846896118E+00  -1.68518877772528E-15
      5.13153867077073E-01
      4.00000000000000E+00   4.00000000000000E+00   0.00000000000000E+00   0.00000000000000E+00   1.32956189806628E+00
      6.12956221081849E-01   1.94251811914812E+00  -1.99532912453363E-15   5.64469253784780E+00   5.64469253784780E+00
      0.00000000000000E+00   0.00000000000000E+00   6.61715245826832E-03   7.86180107722988E-15   6.61715245827619E-03
      6.81408070147959E-15   0.00000000000000E+00   0.00000000000000E+00   0.00000000000000E+00   0.00000000000000E+00
     -1.33617905052454E+00  -6.12956221081857E-01  -1.94913527160640E+00  -1.68409496554816E-15
      5.43926235019357E-01
      4.00000000000000E+00   4.00000000000000E+00   0.00000000000000E+00   0.00000000000000E+00   1.32821802768257E+00
      6.12519793262228E-01   1.94073782094479E+00  -2.29028053062146E-15   5.98318858521293E+00   5.98318858521293E+00
      0.00000000000000E+00   0.00000000000000E+00   7.01975302219098E-03   5.99715807047509E-15   7.01975302219698E-03
      7.20268293816883E-15   0.00000000000000E+00   0.00000000000000E+00   0.00000000000000E+00   0.00000000000000E+00
     -1.33523778070476E+00  -6.12519793262235E-01  -1.94775757396699E+00  -1.68285128533663E-15
      5.80442778310867E-01
      4.00000000000000E+00   4.00000000000000E+00   0.00000000000000E+00   0.00000000000000E+00   1.32670439269258E+00
      6.12032592090950E-01   1.93873698478353E+00  -3.78846880617207E-15   6.38487056141954E+00   6.38487056141954E+00
      0.00000000000000E+00   0.00000000000000E+00   7.48248292954719E-03   1.59620100817520E-14   7.48248292956316E-03
      8.86019462110736E-15   0.00000000000000E+00   0.00000000000000E+00   0.00000000000000E+00   0.00000000000000E+00
     -1.33418687562213E+00  -6.12032592090966E-01  -1.94621946771310E+00  -1.68146076971444E-15
      6.24627795693595E-01
      4.00000000000000E+00   4.00000000000000E+00   0.00000000000000E+00   0.00000000000000E+00   1.32497332333329E+00
      6.11481487940836E-01   1.93645481127413E+00  -6.46435288712799E-15   6.87090575262954E+00   6.87090575262954E+00
      0.00000000000000E+00   0.00000000000000E+00   8.02468039200904E-03   9.49536153993327E-15   8.02468039201853E-03
      1.18141591393184E-14   0.00000000000000E+00   0.00000000000000E+00   0.00000000000000E+00   0.00000000000000E+00
     -1.33299800372530E+00  -6.11481487940845E-01  -1.94447949166615E+00  -1.67988517688507E-15
      6.74627795693595E-01
      4.00000000000000E+00   4.00000000000000E+00   0.00000000000000E+00   0.00000000000000E+00   1.32306168318939E+00
      6.10877868284757E-01   1.93393955147414E+00  -9.91541367397595E-15   7.42090575262954E+00   7.42090575262954E+00
      0.00000000000000E+00   0.00000000000000E+00   8.63403809646311E-03   7.15090593090461E-15   8.63403809647026E-03
      1.56808332101447E-14   0.00000000000000E+00   0.00000000000000E+00   0.00000000000000E+00   0.00000000000000E+00
     -1.33169572128585E+00  -6.10877868284764E-01  -1.94257358957061E+00  -1.67815616417402E-15
      7.24627795693595E-01
      4.00000000000000E+00   4.00000000000000E+00   0.00000000000000E+00   0.00000000000000E+00   1.32132596318679E+00
      6.10334796488557E-01   1.93166075967535E+00  -1.39354690544146E-14   7.97090575262954E+00   7.97090575262954E+00