DF-ISE text

Info {
  version   = 1.0
  type      = xyplot
  datasets  = [
    "time"
    "baze OuterVoltage" "baze InnerVoltage" "baze QuasiFermiPotential" "baze DisplacementCurrent" "baze eCurrent"
    "baze hCurrent" "baze TotalCurrent" "baze Charge" "koll_c0 OuterVoltage" "koll_c0 InnerVoltage"
    "koll_c0 QuasiFermiPotential" "koll_c0 DisplacementCurrent" "koll_c0 eCurrent" "koll_c0 hCurrent" "koll_c0 TotalCurrent"
    "koll_c0 Charge" "emit OuterVoltage" "emit InnerVoltage" "emit QuasiFermiPotential" "emit DisplacementCurrent"
    "emit eCurrent" "emit hCurrent" "emit TotalCurrent" "emit Charge" ]
  functions = [
    Time
    OuterVoltage InnerVoltage QuasiFermiPotential DisplacementCurrent eCurrent
    hCurrent TotalCurrent Charge OuterVoltage InnerVoltage
    QuasiFermiPotential DisplacementCurrent eCurrent hCurrent TotalCurrent
    Charge OuterVoltage InnerVoltage QuasiFermiPotential DisplacementCurrent
    eCurrent hCurrent TotalCurrent Charge ]
}

Data {
      0.00000000000000E+00
      0.00000000000000E+00   0.00000000000000E+00   0.00000000000000E+00   0.00000000000000E+00   1.03567918102409E-23
     -1.82040065910567E-21  -1.81004386729543E-21  -6.06289444526481E-13   0.00000000000000E+00   0.00000000000000E+00
      0.00000000000000E+00   0.00000000000000E+00  -1.03568012983314E-23   1.82040089998877E-21   1.81004409869044E-21
      5.07565828987164E-13   0.00000000000000E+00   0.00000000000000E+00   0.00000000000000E+00   0.00000000000000E+00
      2.69597017855223E-30  -2.74605962534141E-28  -2.71909992355589E-28   1.19882219900828E-13
      0.00000000000000E+00
      4.32855061985353E-12   4.32855061985353E-12   0.00000000000000E+00   0.00000000000000E+00  -2.12815070664782E-25
     -2.04180906210799E-24  -2.25462413277277E-24  -6.06289444290086E-13   0.00000000000000E+00   0.00000000000000E+00
      0.00000000000000E+00   0.00000000000000E+00   2.12795518280206E-25   2.04898016381791E-24   2.26177568209811E-24
      5.07565828751301E-13   0.00000000000000E+00   0.00000000000000E+00   0.00000000000000E+00   0.00000000000000E+00
      2.01093143585504E-29  -7.83566324502646E-28  -7.63457010144096E-28   1.19882219900217E-13
      1.00000000000000E-02
      5.00000000042853E-02   5.00000000042853E-02   0.00000000000000E+00   0.00000000000000E+00   7.42489971799549E-16
      3.23474677048108E-16   1.06596464884766E-15  -5.72769993315373E-13   0.00000000000000E+00   0.00000000000000E+00
      0.00000000000000E+00   0.00000000000000E+00  -7.42010812510480E-16  -2.93420646521010E-16  -1.03543145903149E-15
      4.79807620684119E-13   0.00000000000000E+00   0.00000000000000E+00   0.00000000000000E+00   0.00000000000000E+00
     -4.80844772228242E-19  -3.00677212063899E-17  -3.05485659786182E-17   1.12827023778402E-13
      2.28000000000000E-02
      1.14000000004230E-01   1.14000000004230E-01   0.00000000000000E+00   0.00000000000000E+00   1.01635253500306E-14
      4.42793550410780E-15   1.45914608541384E-14  -5.28565587994229E-13   0.00000000000000E+00   0.00000000000000E+00
      0.00000000000000E+00   0.00000000000000E+00  -1.01569603675015E-14  -4.02218094560650E-15  -1.41791413131080E-14
      4.42931534930283E-13   0.00000000000000E+00   0.00000000000000E+00   0.00000000000000E+00   0.00000000000000E+00
     -6.56498297790925E-18  -4.05754558577048E-16  -4.12319541554957E-16   1.03795593721442E-13
      3.94826666666667E-02
      1.97413333337491E-01   1.97413333337491E-01   0.00000000000000E+00   0.00000000000000E+00   2.58923704539764E-13
      1.12491343374396E-13   3.71415047914160E-13  -4.68394862722805E-13   0.00000000000000E+00   0.00000000000000E+00
      0.00000000000000E+00   0.00000000000000E+00  -2.58757324365179E-13  -1.02389231019171E-13  -3.61146555384350E-13
      3.92305219049060E-13   0.00000000000000E+00   0.00000000000000E+00   0.00000000000000E+00   0.00000000000000E+00
     -1.66380174670391E-16  -1.01021123558202E-14  -1.02684925304906E-14   9.20233512033170E-14
      6.12257422222222E-02
      3.06128711115175E-01   3.06128711115175E-01   0.00000000000000E+00   0.00000000000000E+00   1.73627053139628E-11
      7.51209027171713E-12   2.48747955856800E-11  -3.84151441417115E-13   0.00000000000000E+00   0.00000000000000E+00
      0.00000000000000E+00   0.00000000000000E+00  -1.73516461147201E-11  -6.85667026529534E-12  -2.42083163800154E-11
      3.20502729928664E-13   0.00000000000000E+00   0.00000000000000E+00   0.00000000000000E+00   0.00000000000000E+00
     -1.10591994838712E-14  -6.55420008547627E-13  -6.66479208031498E-13   7.66780950969055E-14
      8.95642173629630E-02
      4.47821086818756E-01   4.47821086818756E-01   0.00000000000000E+00   0.00000000000000E+00   4.16631795880940E-09
      1.79074580660904E-09   5.95706376541844E-09  -2.58076392139434E-13   0.00000000000000E+00   0.00000000000000E+00
      0.00000000000000E+00   0.00000000000000E+00  -4.16356297369009E-09  -1.64084139357484E-09  -5.80440436726494E-09
      2.10645912219642E-13   0.00000000000000E+00   0.00000000000000E+00   0.00000000000000E+00   0.00000000000000E+00
     -2.75498511931988E-12  -1.49904413034315E-10  -1.52659398153635E-10   5.66747183234931E-14
      1.25837465543111E-01
      6.29187327719339E-01   6.29187327719339E-01   0.00000000000000E+00   0.00000000000000E+00   4.10239390977519E-06
      1.82778786451569E-06   5.93018177429088E-06  -7.23298999337415E-14   0.00000000000000E+00   0.00000000000000E+00
      0.00000000000000E+00   0.00000000000000E+00  -3.96944259671755E-06  -1.67337773855679E-06  -5.64282033527434E-06
      4.57806219097953E-14   0.00000000000000E+00   0.00000000000000E+00   0.00000000000000E+00   0.00000000000000E+00
     -1.32951313057641E-07  -1.54410125958918E-07  -2.87361439016559E-07   3.10875867749922E-14
      1.49052344378406E-01
      7.45261721895713E-01   7.45261721895713E-01   0.00000000000000E+00   0.00000000000000E+00   1.22692135603706E-04
      6.08378080461556E-05   1.83529943649861E-04  -2.33524920970556E-14   0.00000000000000E+00   0.00000000000000E+00
      0.00000000000000E+00   0.00000000000000E+00  -7.85142283037170E-05  -4.92283288569339E-05  -1.27742557160651E-04
      1.06542398896192E-14   0.00000000000000E+00   0.00000000000000E+00   0.00000000000000E+00   0.00000000000000E+00
     -4.41779072999886E-05  -1.16094791892220E-05  -5.57873864892106E-05   1.53123676825050E-14
      1.77684028275270E-01
      8.88420141379907E-01   8.88420141379907E-01   0.00000000000000E+00   0.00000000000000E+00   2.62346313018203E-03
      1.09198556011386E-03   3.71544869029589E-03  -5.33645416463999E-15   0.00000000000000E+00   0.00000000000000E+00
      0.00000000000000E+00   0.00000000000000E+00  -7.01352068408148E-04  -4.23843512343677E-04  -1.12519558075182E-03
      2.53275493981634E-15   0.00000000000000E+00   0.00000000000000E+00   0.00000000000000E+00   0.00000000000000E+00
     -1.92211106177388E-03  -6.68142047770195E-04  -2.59025310954408E-03   4.01886034012984E-15
      2.12328365790475E-01
      1.06164182895578E+00   1.06164182895578E+00   0.00000000000000E+00   0.00000000000000E+00   2.07210667793889E-02
      8.55480404559748E-03   2.92758708249864E-02  -1.49180839192682E-15   0.00000000000000E+00   0.00000000000000E+00
      0.00000000000000E+00   0.00000000000000E+00  -2.82116511918431E-03  -1.45919868487723E-03  -4.28036380406154E-03
      9.04471905569981E-16   0.00000000000000E+00   0.00000000000000E+00   0.00000000000000E+00   0.00000000000000E+00
     -1.78999016602469E-02  -7.09560536073733E-03  -2.49955070209842E-02   1.23339149779981E-15
      2.55056382059227E-01
      1.27528191029936E+00   1.27528191029936E+00   0.00000000000000E+00   0.00000000000000E+00   7.58251691371439E-02
      3.19248453778338E-02   1.07750014514978E-01  -2.29197777428756E-16   0.00000000000000E+00   0.00000000000000E+00
      0.00000000000000E+00   0.00000000000000E+00  -6.76674682604607E-03  -3.20469206747663E-03  -9.97143889352270E-03
      3.61458985222666E-16   0.00000000000000E+00   0.00000000000000E+00   0.00000000000000E+00   0.00000000000000E+00
     -6.90584223110978E-02  -2.87201533103572E-02  -9.77785756214550E-02   3.59272913293404E-16
      3.08751255836960E-01
      1.54375627918779E+00   1.54375627918779E+00   0.00000000000000E+00   0.00000000000000E+00   1.86233531777470E-01
      7.95715019660024E-02   2.65805033743473E-01   4.34680906404990E-16   0.00000000000000E+00   0.00000000000000E+00
      0.00000000000000E+00   0.00000000000000E+00  -1.15009860229489E-02  -5.21674430238147E-03  -1.67177303253304E-02
      2.28149747825270E-16   0.00000000000000E+00   0.00000000000000E+00   0.00000000000000E+00   0.00000000000000E+00
     -1.74732545759417E-01  -7.43547576664549E-02  -2.49087303425872E-01  -1.56115223010393E-16
      3.77480694272458E-01
      1.88740347136498E+00   1.88740347136498E+00   0.00000000000000E+00   0.00000000000000E+00   3.63387590084391E-01
      1.57215699885120E-01   5.20603289969511E-01   7.38047247611522E-16   0.00000000000000E+00   0.00000000000000E+00
      0.00000000000000E+00   0.00000000000000E+00  -1.49334328174575E-02  -6.66553536367261E-03  -2.15989681811301E-02
      4.78166688230298E-16   0.00000000000000E+00   0.00000000000000E+00   0.00000000000000E+00   0.00000000000000E+00
     -3.48454157266966E-01  -1.50550164521464E-01  -4.99004321788430E-01  -5.71690178164044E-16
      4.65454375469895E-01
      2.32727187735179E+00   2.32727187735179E+00   0.00000000000000E+00   0.00000000000000E+00   6.02818818490695E-01
      2.64432997044806E-01   8.67251815535501E-01   6.19937119463643E-16   0.00000000000000E+00   0.00000000000000E+00
      0.00000000000000E+00   0.00000000000000E+00  -1.67166001804323E-02  -7.43247023453788E-03  -2.41490704149702E-02
      1.22285135064045E-15   0.00000000000000E+00   0.00000000000000E+00   0.00000000000000E+00   0.00000000000000E+00
     -5.86102218310263E-01  -2.57000526810268E-01  -8.43102745120531E-01  -9.37351361770049E-16
      5.78060687402615E-01
      2.89030343701490E+00   2.89030343701490E+00   0.00000000000000E+00   0.00000000000000E+00   8.88179038613007E-01
      3.96097036216313E-01   1.28427607482932E+00  -3.15190865165528E-17   0.00000000000000E+00   0.00000000000000E+00
      0.00000000000000E+00   0.00000000000000E+00  -1.77034052969384E-02  -7.86550287582938E-03  -2.55689081727678E-02
      2.60853936461089E-15   0.00000000000000E+00   0.00000000000000E+00   0.00000000000000E+00   0.00000000000000E+00
     -8.70475633316069E-01  -3.88231533340483E-01  -1.25870716665655E+00  -1.26386032013884E-15
      7.22196766676496E-01
      3.61098383338368E+00   3.61098383338368E+00   0.00000000000000E+00   0.00000000000000E+00   1.20975613450258E+00
      5.49804069557529E-01   1.75956020406011E+00  -1.17625506812608E-15   0.00000000000000E+00   0.00000000000000E+00
      0.00000000000000E+00   0.00000000000000E+00  -1.83228702711390E-02  -8.13438414386218E-03  -2.64572544150011E-02
      4.67035061869033E-15   0.00000000000000E+00   0.00000000000000E+00   0.00000000000000E+00   0.00000000000000E+00
     -1.19143326423144E+00  -5.41669685413666E-01  -1.73310294964511E+00  -1.56648058792011E-15
      9.06690948147064E-01
      4.53345474073572E+00   4.53345474073572E+00   0.00000000000000E+00   0.00000000000000E+00   1.57377550423449E+00
      7.29736277276908E-01   2.30351178151139E+00  -2.52443203080310E-15   0.00000000000000E+00   0.00000000000000E+00
      0.00000000000000E+00   0.00000000000000E+00  -1.87506807898006E-02  -8.31573594107089E-03  -2.70664167308714E-02
      7.24704342371398E-15   0.00000000000000E+00   0.00000000000000E+00   0.00000000000000E+00   0.00000000000000E+00
     -1.55502482344469E+00  -7.21420541335837E-01  -2.27644536478052E+00  -1.86907114441713E-15
      1.00000000000000E+00
      5.00000000000000E+00   5.00000000000000E+00   0.00000000000000E+00   0.00000000000000E+00   1.74438943042017E+00
      8.15795785967964E-01   2.56018521638813E+00  -3.10585151141998E-15   0.00000000000000E+00   0.00000000000000E+00
      0.00000000000000E+00   0.00000000000000E+00  -1.88961324274120E-02  -8.37917753777268E-03  -2.72753099651847E-02
      8.48573044783253E-15   0.00000000000000E+00   0.00000000000000E+00   0.00000000000000E+00   0.00000000000000E+00
     -1.72549329799275E+00  -8.07416608430190E-01  -2.53290990642295E+00  -2.00258809179825E-15
      1.00000000000000E-03
      5.00000000000000E+00   5.00000000000000E+00   0.00000000000000E+00   0.00000000000000E+00   1.74438638187923E+00
      8.15794303082148E-01   2.56018068496138E+00  -3.10587196467602E-15   1.10000000000000E-02   1.10000000000000E-02
      0.00000000000000E+00   0.00000000000000E+00  -1.88929263887172E-02  -8.37762084506357E-03  -2.72705472337808E-02
      8.48584541048590E-15   0.00000000000000E+00   0.00000000000000E+00   0.00000000000000E+00   0.00000000000000E+00
     -1.72549345549084E+00  -8.07416682237239E-01  -2.53291013772808E+00  -2.00258827334760E-15
      2.32666666666667E-03
      5.00000000000000E+00   5.00000000000000E+00   0.00000000000000E+00   0.00000000000000E+00   1.74438230845013E+00
      8.15792323510662E-01   2.56017463196079E+00  -3.10589920654295E-15   2.55933333333333E-02   2.55933333333333E-02
      0.00000000000000E+00   0.00000000000000E+00  -1.88886472608301E-02  -8.37554489387009E-03  -2.72641921547002E-02
      8.48599861288959E-15   0.00000000000000E+00   0.00000000000000E+00   0.00000000000000E+00   0.00000000000000E+00
     -1.72549366118930E+00  -8.07416778616791E-01  -2.53291043980609E+00  -2.00258851041525E-15
      4.11766666666667E-03
      5.00000000000000E+00   5.00000000000000E+00   0.00000000000000E+00   0.00000000000000E+00   1.74437675617612E+00
      8.15789628621116E-01   2.56016638479724E+00  -3.10593617911230E-15   4.52943333333333E-02   4.52943333333333E-02
      0.00000000000000E+00   0.00000000000000E+00  -1.88828232575348E-02  -8.37272271459359E-03  -2.72555459721284E-02
      8.48620669007966E-15   0.00000000000000E+00   0.00000000000000E+00   0.00000000000000E+00   0.00000000000000E+00
     -1.72549393291859E+00  -8.07416905906525E-01  -2.53291083882512E+00  -2.00258882350396E-15
      6.53551666666667E-03
      5.00000000000000E+00   5.00000000000000E+00   0.00000000000000E+00   0.00000000000000E+00   1.74436916216529E+00
      8.15785948913675E-01   2.56015511107897E+00  -3.10598645475023E-15   7.18906833333333E-02   7.18906833333333E-02
      0.00000000000000E+00   0.00000000000000E+00  -1.88748734978085E-02  -8.36887641294366E-03  -2.72437499107521E-02
      8.48648991609524E-15   0.00000000000000E+00   0.00000000000000E+00   0.00000000000000E+00   0.00000000000000E+00
     -1.72549428866750E+00  -8.07417072500740E-01  -2.53291136116824E+00  -2.00258923324983E-15
      9.79961416666667E-03
      5.00000000000000E+00   5.00000000000000E+00   0.00000000000000E+00   0.00000000000000E+00   1.74435872683749E+00
      8.15780903815448E-01   2.56013963065294E+00  -3.10605500143908E-15   1.07795755833333E-01   1.07795755833333E-01
      0.00000000000000E+00   0.00000000000000E+00  -1.88639786615375E-02  -8.36361623478345E-03  -2.72275948963209E-02
      8.48687659544021E-15   0.00000000000000E+00   0.00000000000000E+00   0.00000000000000E+00   0.00000000000000E+00
     -1.72549474817595E+00  -8.07417287580665E-01  -2.53291203575662E+00  -2.00258976221337E-15
      1.41299835166667E-02
      5.00000000000000E+00   5.00000000000000E+00   0.00000000000000E+00   0.00000000000000E+00   1.74434454764939E+00
      8.15774069161107E-01   2.56011861681049E+00  -3.10614717043869E-15   1.55429818683333E-01   1.55429818683333E-01
      0.00000000000000E+00   0.00000000000000E+00  -1.88492279429866E-02  -8.35651426625458E-03  -2.72057422092411E-02
      8.48739748896031E-15   0.00000000000000E+00   0.00000000000000E+00   0.00000000000000E+00   0.00000000000000E+00
     -1.72549531970640E+00  -8.07417554894852E-01  -2.53291287460125E+00  -2.00259041957384E-15
      1.98749401876667E-02
      5.00000000000000E+00   5.00000000000000E+00   0.00000000000000E+00   0.00000000000000E+00   1.74432512301293E+00
      8.15764742770907E-01   2.56008986578383E+00  -3.10627169881627E-15   2.18624342064333E-01   2.18624342064333E-01
      0.00000000000000E+00   0.00000000000000E+00  -1.88291152344240E-02  -8.34686644480066E-03  -2.71759816792246E-02
      8.48810301960090E-15   0.00000000000000E+00   0.00000000000000E+00   0.00000000000000E+00   0.00000000000000E+00
     -1.72549600777850E+00  -8.07417876326107E-01  -2.53291388410461E+00  -2.00259120988426E-15
      2.74965827045267E-02
      5.00000000000000E+00   5.00000000000000E+00   0.00000000000000E+00   0.00000000000000E+00   1.74429821358841E+00
      8.15751888739701E-01   2.56005010232811E+00  -3.10644108445702E-15   3.02462409749793E-01   3.02462409749793E-01
      0.00000000000000E+00   0.00000000000000E+00  -1.88014240070185E-02  -8.33364800141785E-03  -2.71350720084364E-02
      8.48906596280572E-15   0.00000000000000E+00   0.00000000000000E+00   0.00000000000000E+00   0.00000000000000E+00
     -1.72549678958139E+00  -8.07418240738283E-01  -2.53291503031967E+00  -2.00259210560480E-15
      3.76079617768943E-02
      5.00000000000000E+00   5.00000000000000E+00   0.00000000000000E+00   0.00000000000000E+00   1.74426035716288E+00
      8.15733925314654E-01   2.55999428247754E+00  -3.10667371555205E-15   4.13687579545837E-01   4.13687579545837E-01
      0.00000000000000E+00   0.00000000000000E+00  -1.87627798934769E-02  -8.31531921091321E-03  -2.70780991043901E-02
      8.49039463671577E-15   0.00000000000000E+00   0.00000000000000E+00   0.00000000000000E+00   0.00000000000000E+00
     -1.72549757726941E+00  -8.07418606103742E-01  -2.53291618337315E+00  -2.00259300307578E-15
      5.10223913462353E-02
      5.00000000000000E+00   5.00000000000000E+00   0.00000000000000E+00   0.00000000000000E+00   1.74420593980037E+00
      8.15708323312282E-01   2.55991426311265E+00  -3.10699773697301E-15   5.61246304808588E-01   5.61246304808588E-01
      0.00000000000000E+00   0.00000000000000E+00  -1.87078069348204E-02  -8.28946411972719E-03  -2.69972710545476E-02
      8.49225730040968E-15   0.00000000000000E+00   0.00000000000000E+00   0.00000000000000E+00   0.00000000000000E+00
     -1.72549813286555E+00  -8.07418859192555E-01  -2.53291699205810E+00  -2.00259362322693E-15
      6.88188679082277E-02
      5.00000000000000E+00   5.00000000000000E+00   0.00000000000000E+00   0.00000000000000E+00   1.74412524891797E+00
      8.15670775836977E-01   2.55979602475494E+00  -3.10745862471561E-15   7.57007546990505E-01   7.57007546990505E-01
      0.00000000000000E+00   0.00000000000000E+00  -1.86273909883955E-02  -8.25205984372474E-03  -2.68794508321202E-02
      8.49493116829753E-15   0.00000000000000E+00   0.00000000000000E+00   0.00000000000000E+00   0.00000000000000E+00
     -1.72549785792958E+00  -8.07418715993254E-01  -2.53291657392283E+00  -2.00259326632241E-15
      9.24288601471377E-02
      5.00000000000000E+00   5.00000000000000E+00   0.00000000000000E+00   0.00000000000000E+00   1.74399986219117E+00
      8.15613268022829E-01   2.55961313021399E+00  -3.10813545493523E-15   1.01671746161851E+00   1.01671746161851E+00
      0.00000000000000E+00   0.00000000000000E+00  -1.85046669795150E-02  -8.19582944192973E-03  -2.67004964214447E-02
      8.49891211734850E-15   0.00000000000000E+00   0.00000000000000E+00   0.00000000000000E+00   0.00000000000000E+00
     -1.72549519521165E+00  -8.07417438580899E-01  -2.53291263379255E+00  -2.00259011468708E-15
      1.23200550031850E-01
      5.00000000000000E+00   5.00000000000000E+00   0.00000000000000E+00   0.00000000000000E+00   1.74379423276477E+00
      8.15520731521320E-01   2.55931496428609E+00  -3.10916250726329E-15   1.35520605035035E+00   1.35520605035035E+00
      0.00000000000000E+00   0.00000000000000E+00  -1.83082083977568E-02  -8.10765492841200E-03  -2.64158633261688E-02
      8.50508569929773E-15   0.00000000000000E+00   0.00000000000000E+00   0.00000000000000E+00   0.00000000000000E+00
     -1.72548602436701E+00  -8.07413076592906E-01  -2.53289910095992E+00  -2.00257936492496E-15
      1.63306319181592E-01
      5.00000000000000E+00   5.00000000000000E+00   0.00000000000000E+00   0.00000000000000E+00   1.74341542659086E+00
      8.15354147329609E-01   2.55876957392047E+00  -3.11087481744331E-15   1.79636951099752E+00   1.79636951099752E+00
      0.00000000000000E+00   0.00000000000000E+00  -1.79571240547091E-02  -7.95421621430254E-03  -2.59113402690117E-02
      8.51572498591688E-15   0.00000000000000E+00   0.00000000000000E+00   0.00000000000000E+00   0.00000000000000E+00
     -1.72545830253615E+00  -8.07399931115308E-01  -2.53285823365146E+00  -2.00254698213892E-15
      2.13306319181592E-01
      5.00000000000000E+00   5.00000000000000E+00   0.00000000000000E+00   0.00000000000000E+00   1.74259149358004E+00
      8.15001567653846E-01   2.55759306123388E+00  -3.11415830794562E-15   2.34636951099752E+00   2.34636951099752E+00
      0.00000000000000E+00   0.00000000000000E+00  -1.72215905513927E-02  -7.64349221317050E-03  -2.48650827645632E-02
      8.53716430070625E-15   0.00000000000000E+00   0.00000000000000E+00   0.00000000000000E+00   0.00000000000000E+00
     -1.72536990302865E+00  -8.07358075440676E-01  -2.53272797846932E+00  -2.00244389082407E-15
      2.63306319181592E-01
      5.00000000000000E+00   5.00000000000000E+00   0.00000000000000E+00   0.00000000000000E+00   1.74061485244441E+00
      8.14178160897767E-01   2.55479301334217E+00  -3.12109785169437E-15   2.89636951099752E+00   2.89636951099752E+00
      0.00000000000000E+00   0.00000000000000E+00  -1.55266472365494E-02  -6.95335998628397E-03  -2.24800072228334E-02
      8.58547329950513E-15   0.00000000000000E+00   0.00000000000000E+00   0.00000000000000E+00   0.00000000000000E+00
     -1.72508820520786E+00  -8.07224800911483E-01  -2.53231300611935E+00  -2.00211561064460E-15
      3.13306319181592E-01
      5.00000000000000E+00   5.00000000000000E+00   0.00000000000000E+00   0.00000000000000E+00   1.73360507335280E+00
      8.11321745990740E-01   2.54492681934354E+00  -3.14422743542336E-15   3.44636951099752E+00   3.44636951099752E+00
      0.00000000000000E+00   0.00000000000000E+00  -9.78897443639546E-03  -4.69846935286795E-03  -1.44874437892634E-02
      8.75672325970395E-15   0.00000000000000E+00   0.00000000000000E+00   0.00000000000000E+00   0.00000000000000E+00
     -1.72381609891641E+00  -8.06623276637872E-01  -2.53043937555428E+00  -2.00063285644124E-15
      3.63306319181592E-01
      5.00000000000000E+00   5.00000000000000E+00   0.00000000000000E+00   0.00000000000000E+00   1.71976590929165E+00
      8.05776413213325E-01   2.52554232250498E+00  -3.19533326385163E-15   3.99636951099752E+00   3.99636951099752E+00
      0.00000000000000E+00   0.00000000000000E+00   6.38464138100868E-04  -7.65324950748256E-04  -1.26860812647388E-04
      9.12675440095594E-15   0.00000000000000E+00   0.00000000000000E+00   0.00000000000000E+00   0.00000000000000E+00
     -1.72040437342976E+00  -8.05011088262577E-01  -2.52541546169233E+00  -1.99664930805384E-15
      4.13306319181592E-01
      5.00000000000000E+00   5.00000000000000E+00   0.00000000000000E+00   0.00000000000000E+00   1.71421887567470E+00
      8.03770156529174E-01   2.51798903220388E+00  -3.21023221136677E-15   4.54636951099752E+00   4.54636951099752E+00
      0.00000000000000E+00   0.00000000000000E+00   3.55734235103013E-03  -7.08670652524074E-10   3.55734164235947E-03
      9.24723908649103E-15   0.00000000000000E+00   0.00000000000000E+00   0.00000000000000E+00   0.00000000000000E+00
     -1.71777621802573E+00  -8.03770155820504E-01  -2.52154637384623E+00  -1.99357443218441E-15
      4.38306319181592E-01
      5.00000000000000E+00   5.00000000000000E+00   0.00000000000000E+00   0.00000000000000E+00   1.71254315081423E+00
      8.03229179139278E-01   2.51577232995351E+00  -3.21186768621983E-15   4.82136951099752E+00   4.82136951099752E+00
      0.00000000000000E+00   0.00000000000000E+00   4.08702049499635E-03  -2.58606006718960E-14   4.08702049497049E-03
      9.26918509756835E-15   0.00000000000000E+00   0.00000000000000E+00   0.00000000000000E+00   0.00000000000000E+00
     -1.71663017130923E+00  -8.03229179139252E-01  -2.51985935044848E+00  -1.99223156714649E-15
      4.68556319181592E-01
      5.00000000000000E+00   5.00000000000000E+00   0.00000000000000E+00   0.00000000000000E+00   1.71055991067800E+00
      8.02582898490527E-01   2.51314280916853E+00  -3.21495474323569E-15   5.15411951099752E+00   5.15411951099752E+00
      0.00000000000000E+00   0.00000000000000E+00   4.70099301321833E-03   1.17272726246257E-15   4.70099301321950E-03
      9.29818751578145E-15   0.00000000000000E+00   0.00000000000000E+00   0.00000000000000E+00   0.00000000000000E+00
     -1.71526090369122E+00  -8.02582898490528E-01  -2.51784380218175E+00  -1.99062517004774E-15
      5.05158819181592E-01
      5.00000000000000E+00   5.00000000000000E+00   0.00000000000000E+00   0.00000000000000E+00   1.70831874380165E+00
      8.01847600447987E-01   2.51016634424964E+00  -3.22044783318716E-15   5.55674701099752E+00   5.55674701099752E+00
      0.00000000000000E+00   0.00000000000000E+00   5.38407304860318E-03   6.40504872820270E-15   5.38407304860959E-03
      9.33640681812770E-15   0.00000000000000E+00   0.00000000000000E+00   0.00000000000000E+00   0.00000000000000E+00
     -1.71370281685026E+00  -8.01847600447995E-01  -2.51555041729825E+00  -1.98879461114787E-15
      5.43469435848259E-01
      5.00000000000000E+00   5.00000000000000E+00   0.00000000000000E+00   0.00000000000000E+00   1.70614549862689E+00
      8.01130280352312E-01   2.50727577897920E+00  -3.22905485137936E-15   5.97816379433085E+00   5.97816379433085E+00
      0.00000000000000E+00   0.00000000000000E+00   6.03709231654014E-03   1.35659438180721E-14   6.03709231655370E-03
      9.38579956355958E-15   0.00000000000000E+00   0.00000000000000E+00   0.00000000000000E+00   0.00000000000000E+00
     -1.71218259094343E+00  -8.01130280352326E-01  -2.51331287129576E+00  -1.98700579145032E-15
      5.62624744181592E-01
      5.00000000000000E+00   5.00000000000000E+00   0.00000000000000E+00   0.00000000000000E+00   1.70512677295736E+00
      8.00792746029363E-01   2.50591951898673E+00  -3.23503521590845E-15   6.18887218599752E+00   6.18887218599752E+00
      0.00000000000000E+00   0.00000000000000E+00   6.34039228874139E-03   7.77023378671960E-15   6.34039228874916E-03
      9.41678897163303E-15   0.00000000000000E+00   0.00000000000000E+00   0.00000000000000E+00   0.00000000000000E+00
     -1.71146716524611E+00  -8.00792746029371E-01  -2.51225991127548E+00  -1.98616301424750E-15
      5.86696581653815E-01
      5.00000000000000E+00   5.00000000000000E+00   0.00000000000000E+00   0.00000000000000E+00   1.70390457372793E+00
      8.00386388324871E-01   2.50429096205280E+00  -3.24520751609565E-15   6.45366239819196E+00   6.45366239819196E+00
      0.00000000000000E+00   0.00000000000000E+00   6.70121992696509E-03   5.98217433202795E-15   6.70121992697107E-03
      9.46433039708262E-15   0.00000000000000E+00   0.00000000000000E+00   0.00000000000000E+00   0.00000000000000E+00
     -1.71060579365490E+00  -8.00386388324876E-01  -2.51099218197977E+00  -1.98514749062469E-15
      6.16946857410574E-01
      5.00000000000000E+00   5.00000000000000E+00   0.00000000000000E+00   0.00000000000000E+00   1.70237387846011E+00
      7.99874065348053E-01   2.50224794380817E+00  -3.26790621989694E-15   6.78641543151631E+00   6.78641543151631E+00
      0.00000000000000E+00   0.00000000000000E+00   7.14580287015415E-03   2.82892981881941E-15   7.14580287015697E-03
      9.54584531365845E-15   0.00000000000000E+00   0.00000000000000E+00   0.00000000000000E+00   0.00000000000000E+00
     -1.70951968133027E+00  -7.99874065348056E-01  -2.50939374667832E+00  -1.98386570581809E-15
      6.35601194127242E-01
      5.00000000000000E+00   5.00000000000000E+00   0.00000000000000E+00   0.00000000000000E+00   1.70147840205165E+00
      7.99572923116308E-01   2.50105132516796E+00  -3.29676998501931E-15   6.99161313539966E+00   6.99161313539966E+00
      0.00000000000000E+00   0.00000000000000E+00   7.40281583931945E-03   1.16127302684964E-14   7.40281583933107E-03
      9.62139571751262E-15   0.00000000000000E+00   0.00000000000000E+00   0.00000000000000E+00   0.00000000000000E+00
     -1.70888121789097E+00  -7.99572923116319E-01  -2.50845414100729E+00  -1.98311154193974E-15
      6.59043477267855E-01
      5.00000000000000E+00   5.00000000000000E+00   0.00000000000000E+00   0.00000000000000E+00   1.70041534309897E+00
      7.99214643390025E-01   2.49962998648899E+00  -3.42701620193951E-15   7.24947824994641E+00   7.24947824994641E+00
      0.00000000000000E+00   0.00000000000000E+00   7.70621720939879E-03   7.58643326176805E-15   7.70621720940637E-03
      9.82372042546377E-15   0.00000000000000E+00   0.00000000000000E+00   0.00000000000000E+00   0.00000000000000E+00
     -1.70812156030837E+00  -7.99214643390032E-01  -2.50733620369840E+00  -1.98221355500325E-15
      6.87955626474611E-01
      5.00000000000000E+00   5.00000000000000E+00   0.00000000000000E+00   0.00000000000000E+00   1.69915424509191E+00
      7.98791154525121E-01   2.49794539961703E+00  -4.18354047585155E-15   7.56751189122072E+00   7.56751189122072E+00
      0.00000000000000E+00   0.00000000000000E+00   8.06931353753910E-03   1.13396932567931E-14   8.06931353755044E-03
      1.06930837920895E-14   0.00000000000000E+00   0.00000000000000E+00   0.00000000000000E+00   0.00000000000000E+00
     -1.70722355862945E+00  -7.98791154525132E-01  -2.50601471315458E+00  -1.98115106663698E-15
      7.22939327014786E-01
      5.00000000000000E+00   5.00000000000000E+00   0.00000000000000E+00   0.00000000000000E+00   1.69770223435520E+00
      7.98307325234719E-01   2.49600955958992E+00  -5.85668476470859E-15   7.95233259716265E+00   7.95233259716265E+00