DF-ISE text

Info {
  version   = 1.0
  type      = xyplot
  datasets  = [
    "time"
    "bazza_cont OuterVoltage" "bazza_cont InnerVoltage" "bazza_cont QuasiFermiPotential" "bazza_cont DisplacementCurrent" "bazza_cont eCurrent"
    "bazza_cont hCurrent" "bazza_cont TotalCurrent" "bazza_cont Charge" "emitter_cont OuterVoltage" "emitter_cont InnerVoltage"
    "emitter_cont QuasiFermiPotential" "emitter_cont DisplacementCurrent" "emitter_cont eCurrent" "emitter_cont hCurrent" "emitter_cont TotalCurrent"
    "emitter_cont Charge" ]
  functions = [
    Time
    OuterVoltage InnerVoltage QuasiFermiPotential DisplacementCurrent eCurrent
    hCurrent TotalCurrent Charge OuterVoltage InnerVoltage
    QuasiFermiPotential DisplacementCurrent eCurrent hCurrent TotalCurrent
    Charge ]
}

Data {
      0.00000000000000E+00
      0.00000000000000E+00   0.00000000000000E+00   0.00000000000000E+00   0.00000000000000E+00  -3.10227337559649E-18
     -2.03726816470337E-30  -3.10227337559853E-18  -9.26603324035135E-15   0.00000000000000E+00   0.00000000000000E+00
      0.00000000000000E+00   0.00000000000000E+00   3.10227337559649E-18   2.03726816470337E-30   3.10227337559853E-18
      9.26603324035140E-15
      0.00000000000000E+00
      0.00000000000000E+00   0.00000000000000E+00   0.00000000000000E+00   0.00000000000000E+00  -1.37275596870145E-16
     -1.37708755339378E-31  -1.37275596870145E-16  -9.26603324028216E-15   0.00000000000000E+00   0.00000000000000E+00
      0.00000000000000E+00   0.00000000000000E+00   1.37275596870145E-16   1.37708755339378E-31   1.37275596870145E-16
      9.26603324028215E-15
      1.00000000000000E-02
      0.00000000000000E+00   0.00000000000000E+00   0.00000000000000E+00   0.00000000000000E+00   4.08465994453536E-17
     -5.37496811189768E-18   3.54716313334559E-17  -1.03017687946475E-14   1.00000000000000E+00   1.00000000000000E+00
      0.00000000000000E+00   0.00000000000000E+00  -4.08465994453535E-17   5.37496811189768E-18  -3.54716313334559E-17
      1.03017687946475E-14
      2.23333333333333E-02
      0.00000000000000E+00   0.00000000000000E+00   0.00000000000000E+00   0.00000000000000E+00   3.74014621493279E-17
     -5.40125267198943E-18   3.20002094773384E-17  -1.14839426702244E-14   2.23333333333333E+00   2.23333333333333E+00
      0.00000000000000E+00   0.00000000000000E+00  -3.74014621493279E-17   5.40125267198943E-18  -3.20002094773384E-17
      1.14839426702243E-14
      3.78322222222222E-02
      0.00000000000000E+00   0.00000000000000E+00   0.00000000000000E+00   0.00000000000000E+00  -1.40939836059860E-16
     -5.41923031291091E-18  -1.46359066372771E-16  -1.29273632675320E-14   3.78322222222222E+00   3.78322222222222E+00
      0.00000000000000E+00   0.00000000000000E+00   1.40939836059860E-16   5.41923031291091E-18   1.46359066372771E-16
      1.29273632675320E-14
      5.76708000000000E-02
      0.00000000000000E+00   0.00000000000000E+00   0.00000000000000E+00   0.00000000000000E+00  -2.06388270298253E-16
     -5.45330858819366E-18  -2.11841578886447E-16  -1.46907231206122E-14   5.76708000000000E+00   5.76708000000000E+00
      0.00000000000000E+00   0.00000000000000E+00   2.06388270298253E-16   5.45330858819366E-18   2.11841578886447E-16
      1.46907231206122E-14
      8.26012794074074E-02
      0.00000000000000E+00   0.00000000000000E+00   0.00000000000000E+00   0.00000000000000E+00   2.56250851741432E-16
     -5.47574617483663E-18   2.50775105566596E-16  -1.65919807672986E-14   8.26012794074074E+00   8.26012794074074E+00
      0.00000000000000E+00   0.00000000000000E+00  -2.56250851741432E-16   5.47574617483663E-18  -2.50775105566596E-16
      1.65919807672987E-14
      1.14512293048889E-01
      0.00000000000000E+00   0.00000000000000E+00   0.00000000000000E+00   0.00000000000000E+00  -8.70835594984084E-17
     -5.49846502315214E-18  -9.25820245215606E-17  -1.88948885019180E-14   1.14512293048889E+01   1.14512293048889E+01
      0.00000000000000E+00   0.00000000000000E+00   8.70835594984084E-17   5.49846502315214E-18   9.25820245215606E-17
      1.88948885019181E-14
      1.54613800191684E-01
      0.00000000000000E+00   0.00000000000000E+00   0.00000000000000E+00   0.00000000000000E+00   4.83980636355280E-15
     -5.52024539283924E-18   4.83428611815996E-15  -2.14461019091426E-14   1.54613800191684E+01   1.54613800191684E+01
      0.00000000000000E+00   0.00000000000000E+00  -4.83980636355280E-15   5.52024539283924E-18  -4.83428611815996E-15
      2.14461019091426E-14
      2.06879431167794E-01
      0.00000000000000E+00   0.00000000000000E+00   0.00000000000000E+00   0.00000000000000E+00   9.05807579205392E-14
     -5.54637803509838E-18   9.05752115425041E-14  -2.48536321821318E-14   2.06879431167794E+01   2.06879431167794E+01
      0.00000000000000E+00   0.00000000000000E+00  -9.05807579205392E-14   5.54637803509838E-18  -9.05752115425041E-14
      2.48536321821320E-14
      2.73779438817214E-01
      0.00000000000000E+00   0.00000000000000E+00   0.00000000000000E+00   0.00000000000000E+00   1.64230636239098E-16
     -5.56882732836254E-18   1.58661808910735E-16  -2.79675174189872E-14   2.73779438817214E+01   2.73779438817214E+01
      0.00000000000000E+00   0.00000000000000E+00  -1.64230636239098E-16   5.56882732836254E-18  -1.58661808910735E-16
      2.79675174189872E-14
      3.57850448429985E-01
      0.00000000000000E+00   0.00000000000000E+00   0.00000000000000E+00   0.00000000000000E+00   5.65842452260942E-17
     -5.59525166241154E-18   5.09889935636826E-17  -3.17168033356039E-14   3.57850448429985E+01   3.57850448429985E+01
      0.00000000000000E+00   0.00000000000000E+00  -5.65842452260942E-17   5.59525166241154E-18  -5.09889935636826E-17
      3.17168033356041E-14
      4.65461340734333E-01
      0.00000000000000E+00   0.00000000000000E+00   0.00000000000000E+00   0.00000000000000E+00  -9.37484995677905E-17
     -5.62717902226669E-18  -9.93756785900572E-17  -3.62762005978511E-14   4.65461340734333E+01   4.65461340734333E+01
      0.00000000000000E+00   0.00000000000000E+00   9.37484995677905E-17   5.62717902226669E-18   9.93756785900572E-17
      3.62762005978509E-14
      5.98181441243028E-01
      0.00000000000000E+00   0.00000000000000E+00   0.00000000000000E+00   0.00000000000000E+00  -4.78379071643463E-17
     -5.65902592694698E-18  -5.34969330912932E-17  -4.07319704051913E-14   5.98181441243028E+01   5.98181441243028E+01
      0.00000000000000E+00   0.00000000000000E+00   4.78379071643463E-17   5.65902592694698E-18   5.34969330912932E-17
      4.07319704051905E-14
      7.71159972239361E-01
      0.00000000000000E+00   0.00000000000000E+00   0.00000000000000E+00   0.00000000000000E+00   7.46693725983045E-17
     -5.70207600201182E-18   6.89672965962927E-17  -4.65415508342013E-14   7.71159972239361E+01   7.71159972239361E+01
      0.00000000000000E+00   0.00000000000000E+00  -7.46693725983046E-17   5.70207600201182E-18  -6.89672965962927E-17
      4.65415508342012E-14
      9.71159972239361E-01
      0.00000000000000E+00   0.00000000000000E+00   0.00000000000000E+00   0.00000000000000E+00  -1.16770020020754E-18
     -5.74850305067611E-18  -6.91620325088365E-18  -5.24775759885249E-14   9.71159972239361E+01   9.71159972239361E+01
      0.00000000000000E+00   0.00000000000000E+00   1.16770020020754E-18   5.74850305067611E-18   6.91620325088365E-18
      5.24775759885246E-14
      1.00000000000000E+00
      0.00000000000000E+00   0.00000000000000E+00   0.00000000000000E+00   0.00000000000000E+00  -1.18315809515528E-17
     -5.75370940438817E-18  -1.75852903559410E-17  -5.31207671878376E-14   1.00000000000000E+02   1.00000000000000E+02
      0.00000000000000E+00   0.00000000000000E+00   1.18315809515528E-17   5.75370940438817E-18   1.75852903559410E-17
      5.31207671878373E-14
}
